<?xml version="1.0"?>
<VTKFile type="UnstructuredGrid"  version="0.1"  >
<UnstructuredGrid>
<Piece  NumberOfPoints="135" NumberOfCells="208">
<Points>
<DataArray  type="Float64"  NumberOfComponents="3"  format="ascii">1 1 0  1.076923076923077 1 0  1.153846153846154 1 0  1.230769230769231 1 0  1.307692307692308 1 0  1.384615384615385 1 0  1.461538461538462 1 0  1.538461538461538 1 0  1.615384615384615 1 0  1.692307692307692 1 0  1.769230769230769 1 0  1.846153846153846 1 0  1.923076923076923 1 0  2 1 0  2.076923076923077 1 0  2.153846153846154 1 0  2.230769230769231 1 0  2.307692307692307 1 0  2.384615384615385 1 0  2.461538461538462 1 0  2.538461538461538 1 0  2.615384615384615 1 0  2.692307692307693 1 0  2.769230769230769 1 0  2.846153846153846 1 0  2.923076923076923 1 0  3 1 0  1 1.0625 0  1.076923076923077 1.0625 0  1.153846153846154 1.0625 0  1.230769230769231 1.0625 0  1.307692307692308 1.0625 0  1.384615384615385 1.0625 0  1.461538461538462 1.0625 0  1.538461538461538 1.0625 0  1.615384615384615 1.0625 0  1.692307692307692 1.0625 0  1.769230769230769 1.0625 0  1.846153846153846 1.0625 0  1.923076923076923 1.0625 0  2 1.0625 0  2.076923076923077 1.0625 0  2.153846153846154 1.0625 0  2.230769230769231 1.0625 0  2.307692307692307 1.0625 0  2.384615384615385 1.0625 0  2.461538461538462 1.0625 0  2.538461538461538 1.0625 0  2.615384615384615 1.0625 0  2.692307692307693 1.0625 0  2.769230769230769 1.0625 0  2.846153846153846 1.0625 0  2.923076923076923 1.0625 0  3 1.0625 0  1 1.125 0  1.076923076923077 1.125 0  1.153846153846154 1.125 0  1.230769230769231 1.125 0  1.307692307692308 1.125 0  1.384615384615385 1.125 0  1.461538461538462 1.125 0  1.538461538461538 1.125 0  1.615384615384615 1.125 0  1.692307692307692 1.125 0  1.769230769230769 1.125 0  1.846153846153846 1.125 0  1.923076923076923 1.125 0  2 1.125 0  2.076923076923077 1.125 0  2.153846153846154 1.125 0  2.230769230769231 1.125 0  2.307692307692307 1.125 0  2.384615384615385 1.125 0  2.461538461538462 1.125 0  2.538461538461538 1.125 0  2.615384615384615 1.125 0  2.692307692307693 1.125 0  2.769230769230769 1.125 0  2.846153846153846 1.125 0  2.923076923076923 1.125 0  3 1.125 0  1 1.1875 0  1.076923076923077 1.1875 0  1.153846153846154 1.1875 0  1.230769230769231 1.1875 0  1.307692307692308 1.1875 0  1.384615384615385 1.1875 0  1.461538461538462 1.1875 0  1.538461538461538 1.1875 0  1.615384615384615 1.1875 0  1.692307692307692 1.1875 0  1.769230769230769 1.1875 0  1.846153846153846 1.1875 0  1.923076923076923 1.1875 0  2 1.1875 0  2.076923076923077 1.1875 0  2.153846153846154 1.1875 0  2.230769230769231 1.1875 0  2.307692307692307 1.1875 0  2.384615384615385 1.1875 0  2.461538461538462 1.1875 0  2.538461538461538 1.1875 0  2.615384615384615 1.1875 0  2.692307692307693 1.1875 0  2.769230769230769 1.1875 0  2.846153846153846 1.1875 0  2.923076923076923 1.1875 0  3 1.1875 0  1 1.25 0  1.076923076923077 1.25 0  1.153846153846154 1.25 0  1.230769230769231 1.25 0  1.307692307692308 1.25 0  1.384615384615385 1.25 0  1.461538461538462 1.25 0  1.538461538461538 1.25 0  1.615384615384615 1.25 0  1.692307692307692 1.25 0  1.769230769230769 1.25 0  1.846153846153846 1.25 0  1.923076923076923 1.25 0  2 1.25 0  2.076923076923077 1.25 0  2.153846153846154 1.25 0  2.230769230769231 1.25 0  2.307692307692307 1.25 0  2.384615384615385 1.25 0  2.461538461538462 1.25 0  2.538461538461538 1.25 0  2.615384615384615 1.25 0  2.692307692307693 1.25 0  2.769230769230769 1.25 0  2.846153846153846 1.25 0  2.923076923076923 1.25 0  3 1.25 0  </DataArray>
</Points>
<Cells>
<DataArray  type="UInt32"  Name="connectivity"  format="ascii">0 1 28  0 27 28  1 2 29  1 28 29  2 3 30  2 29 30  3 4 31  3 30 31  4 5 32  4 31 32  5 6 33  5 32 33  6 7 34  6 33 34  7 8 35  7 34 35  8 9 36  8 35 36  9 10 37  9 36 37  10 11 38  10 37 38  11 12 39  11 38 39  12 13 40  12 39 40  13 14 41  13 40 41  14 15 42  14 41 42  15 16 43  15 42 43  16 17 44  16 43 44  17 18 45  17 44 45  18 19 46  18 45 46  19 20 47  19 46 47  20 21 48  20 47 48  21 22 49  21 48 49  22 23 50  22 49 50  23 24 51  23 50 51  24 25 52  24 51 52  25 26 53  25 52 53  27 28 55  27 54 55  28 29 56  28 55 56  29 30 57  29 56 57  30 31 58  30 57 58  31 32 59  31 58 59  32 33 60  32 59 60  33 34 61  33 60 61  34 35 62  34 61 62  35 36 63  35 62 63  36 37 64  36 63 64  37 38 65  37 64 65  38 39 66  38 65 66  39 40 67  39 66 67  40 41 68  40 67 68  41 42 69  41 68 69  42 43 70  42 69 70  43 44 71  43 70 71  44 45 72  44 71 72  45 46 73  45 72 73  46 47 74  46 73 74  47 48 75  47 74 75  48 49 76  48 75 76  49 50 77  49 76 77  50 51 78  50 77 78  51 52 79  51 78 79  52 53 80  52 79 80  54 55 82  54 81 82  55 56 83  55 82 83  56 57 84  56 83 84  57 58 85  57 84 85  58 59 86  58 85 86  59 60 87  59 86 87  60 61 88  60 87 88  61 62 89  61 88 89  62 63 90  62 89 90  63 64 91  63 90 91  64 65 92  64 91 92  65 66 93  65 92 93  66 67 94  66 93 94  67 68 95  67 94 95  68 69 96  68 95 96  69 70 97  69 96 97  70 71 98  70 97 98  71 72 99  71 98 99  72 73 100  72 99 100  73 74 101  73 100 101  74 75 102  74 101 102  75 76 103  75 102 103  76 77 104  76 103 104  77 78 105  77 104 105  78 79 106  78 105 106  79 80 107  79 106 107  81 82 109  81 108 109  82 83 110  82 109 110  83 84 111  83 110 111  84 85 112  84 111 112  85 86 113  85 112 113  86 87 114  86 113 114  87 88 115  87 114 115  88 89 116  88 115 116  89 90 117  89 116 117  90 91 118  90 117 118  91 92 119  91 118 119  92 93 120  92 119 120  93 94 121  93 120 121  94 95 122  94 121 122  95 96 123  95 122 123  96 97 124  96 123 124  97 98 125  97 124 125  98 99 126  98 125 126  99 100 127  99 126 127  100 101 128  100 127 128  101 102 129  101 128 129  102 103 130  102 129 130  103 104 131  103 130 131  104 105 132  104 131 132  105 106 133  105 132 133  106 107 134  106 133 134  </DataArray>
<DataArray  type="UInt32"  Name="offsets"  format="ascii">3 6 9 12 15 18 21 24 27 30 33 36 39 42 45 48 51 54 57 60 63 66 69 72 75 78 81 84 87 90 93 96 99 102 105 108 111 114 117 120 123 126 129 132 135 138 141 144 147 150 153 156 159 162 165 168 171 174 177 180 183 186 189 192 195 198 201 204 207 210 213 216 219 222 225 228 231 234 237 240 243 246 249 252 255 258 261 264 267 270 273 276 279 282 285 288 291 294 297 300 303 306 309 312 315 318 321 324 327 330 333 336 339 342 345 348 351 354 357 360 363 366 369 372 375 378 381 384 387 390 393 396 399 402 405 408 411 414 417 420 423 426 429 432 435 438 441 444 447 450 453 456 459 462 465 468 471 474 477 480 483 486 489 492 495 498 501 504 507 510 513 516 519 522 525 528 531 534 537 540 543 546 549 552 555 558 561 564 567 570 573 576 579 582 585 588 591 594 597 600 603 606 609 612 615 618 621 624 </DataArray>
<DataArray  type="UInt8"  Name="types"  format="ascii">5 5 5 5 5 5 5 5 5 5 5 5 5 5 5 5 5 5 5 5 5 5 5 5 5 5 5 5 5 5 5 5 5 5 5 5 5 5 5 5 5 5 5 5 5 5 5 5 5 5 5 5 5 5 5 5 5 5 5 5 5 5 5 5 5 5 5 5 5 5 5 5 5 5 5 5 5 5 5 5 5 5 5 5 5 5 5 5 5 5 5 5 5 5 5 5 5 5 5 5 5 5 5 5 5 5 5 5 5 5 5 5 5 5 5 5 5 5 5 5 5 5 5 5 5 5 5 5 5 5 5 5 5 5 5 5 5 5 5 5 5 5 5 5 5 5 5 5 5 5 5 5 5 5 5 5 5 5 5 5 5 5 5 5 5 5 5 5 5 5 5 5 5 5 5 5 5 5 5 5 5 5 5 5 5 5 5 5 5 5 5 5 5 5 5 5 5 5 5 5 5 5 5 5 5 5 5 5 </DataArray>
</Cells>
<PointData  Vectors="Displacement"> 
<DataArray  type="Float64"  Name="Displacement"  NumberOfComponents="3" format="ascii">7.0682565397308967e-04 1.4806961701961137e-04 0.0000000000000000e+00  7.5269498782477504e-04 5.7576570419382565e-05 0.0000000000000000e+00  7.6302799767540464e-04 1.1892435021516710e-04 0.0000000000000000e+00  7.5260941109647750e-04 1.6438933224620790e-04 0.0000000000000000e+00  7.3976547176751240e-04 2.0219681033829535e-04 0.0000000000000000e+00  7.2341231576930089e-04 2.3408861477470293e-04 0.0000000000000000e+00  7.0790642856426373e-04 2.4991597396154056e-04 0.0000000000000000e+00  6.9516194129082547e-04 2.6263282883742296e-04 0.0000000000000000e+00  6.7990396204746062e-04 2.7247969237725834e-04 0.0000000000000000e+00  6.6691988144831752e-04 2.7664993133417342e-04 0.0000000000000000e+00  6.5594630488885074e-04 2.7443688564446946e-04 0.0000000000000000e+00  6.4859703396017571e-04 2.6850015219049623e-04 0.0000000000000000e+00  6.4066270187398478e-04 2.6312804272782102e-04 0.0000000000000000e+00  6.3356427420278958e-04 2.5428018721384177e-04 0.0000000000000000e+00  6.2663828198387895e-04 2.4577000966448251e-04 0.0000000000000000e+00  6.2249186999327260e-04 2.3795686080555151e-04 0.0000000000000000e+00  6.1962645263410388e-04 2.2938070952721221e-04 0.0000000000000000e+00  6.1900919728834756e-04 2.2047834912487029e-04 0.0000000000000000e+00  6.1784441182067651e-04 2.1487320763048767e-04 0.0000000000000000e+00  6.1711435496845685e-04 2.0889087163532432e-04 0.0000000000000000e+00  6.1677094857576816e-04 2.0515192167063902e-04 0.0000000000000000e+00  6.1666183910970296e-04 2.0498426927672555e-04 0.0000000000000000e+00  6.1588528884837809e-04 2.0646890235109745e-04 0.0000000000000000e+00  6.1644221554317774e-04 2.1068896086210567e-04 0.0000000000000000e+00  6.1930622728126404e-04 2.1776589770169480e-04 0.0000000000000000e+00  6.2422033299739234e-04 2.2210639572199393e-04 0.0000000000000000e+00  6.4399702299502320e-04 2.8519094692468233e-04 0.0000000000000000e+00  7.3886740527026411e-04 4.9289809387459258e-05 0.0000000000000000e+00  7.3653605015998531e-04 6.4689281424138852e-05 0.0000000000000000e+00  7.2471017647181008e-04 1.1916950999876560e-04 0.0000000000000000e+00  7.1833041518062381e-04 1.6762239294442491e-04 0.0000000000000000e+00  7.1006472182376574e-04 2.0743606926073793e-04 0.0000000000000000e+00  7.0059287835214285e-04 2.3894165987294497e-04 0.0000000000000000e+00  6.9311705279471341e-04 2.5550088216091759e-04 0.0000000000000000e+00  6.8293509865868698e-04 2.6918130806241315e-04 0.0000000000000000e+00  6.7331205199377617e-04 2.7972648792184409e-04 0.0000000000000000e+00  6.6462757348780932e-04 2.8190710288911972e-04 0.0000000000000000e+00  6.5835619830212301e-04 2.7827923846905384e-04 0.0000000000000000e+00  6.5260215064012804e-04 2.7349384985260390e-04 0.0000000000000000e+00  6.4479232108408027e-04 2.6761748301012479e-04 0.0000000000000000e+00  6.3948936085199350e-04 2.5805410220840354e-04 0.0000000000000000e+00  6.3446477849464565e-04 2.4970995015923117e-04 0.0000000000000000e+00  6.2973654716637220e-04 2.4061055117990753e-04 0.0000000000000000e+00  6.2749046730997595e-04 2.3010360572521147e-04 0.0000000000000000e+00  6.2498642903803612e-04 2.2203913726753894e-04 0.0000000000000000e+00  6.2244059404652338e-04 2.1615893757086850e-04 0.0000000000000000e+00  6.2243441708158709e-04 2.0945034627261941e-04 0.0000000000000000e+00  6.1993869919829778e-04 2.0633512889059558e-04 0.0000000000000000e+00  6.1772357030799216e-04 2.0565285503165457e-04 0.0000000000000000e+00  6.1571455645072855e-04 2.0775800833894390e-04 0.0000000000000000e+00  6.1479806106313562e-04 2.1110256452207968e-04 0.0000000000000000e+00  6.1334724870276485e-04 2.1782032257840886e-04 0.0000000000000000e+00  6.1042743071775766e-04 2.2889306716690407e-04 0.0000000000000000e+00  6.1302143457545608e-04 2.5662467040289829e-04 0.0000000000000000e+00  6.9522985719901967e-04 8.2838575190901092e-06 0.0000000000000000e+00  7.0305831864953634e-04 6.9525214897044871e-05 0.0000000000000000e+00  6.9367090098303337e-04 1.2292117980271136e-04 0.0000000000000000e+00  6.8690567591777880e-04 1.7163546839371724e-04 0.0000000000000000e+00  6.8257691737399931e-04 2.1031996034515143e-04 0.0000000000000000e+00  6.7991903637703113e-04 2.4156268803202473e-04 0.0000000000000000e+00  6.7551726408023169e-04 2.5943727654018398e-04 0.0000000000000000e+00  6.7051240463525570e-04 2.7274555534366029e-04 0.0000000000000000e+00  6.6691850415400333e-04 2.8343932529976946e-04 0.0000000000000000e+00  6.6263870990736413e-04 2.8466929686706580e-04 0.0000000000000000e+00  6.5767131323060419e-04 2.8158602456750597e-04 0.0000000000000000e+00  6.5309534654080822e-04 2.7619604719887706e-04 0.0000000000000000e+00  6.4910563308512412e-04 2.7067843560542521e-04 0.0000000000000000e+00  6.4391339709616094e-04 2.6000929359987869e-04 0.0000000000000000e+00  6.3921692164368646e-04 2.5180233114979126e-04 0.0000000000000000e+00  6.3599509915049552e-04 2.4203796735710876e-04 0.0000000000000000e+00  6.3336749281998471e-04 2.3053855200490941e-04 0.0000000000000000e+00  6.2983482073547385e-04 2.2323497249464175e-04 0.0000000000000000e+00  6.2772720100766864e-04 2.1637490521932747e-04 0.0000000000000000e+00  6.2480304651835856e-04 2.1053123836729394e-04 0.0000000000000000e+00  6.2179256208788809e-04 2.0741706339663370e-04 0.0000000000000000e+00  6.1750730097328102e-04 2.0778494531278720e-04 0.0000000000000000e+00  6.1305894006526455e-04 2.0868111611227735e-04 0.0000000000000000e+00  6.0959859613317466e-04 2.1274947795990210e-04 0.0000000000000000e+00  6.0671656014670613e-04 2.2016527886738080e-04 0.0000000000000000e+00  6.0351231119882794e-04 2.3133611238211805e-04 0.0000000000000000e+00  6.0414132115421757e-04 2.4382869853941443e-04 0.0000000000000000e+00  6.4164345699410283e-04 -3.0389657208064831e-05 0.0000000000000000e+00  6.5347867423373913e-04 6.6400801577816480e-05 0.0000000000000000e+00  6.5063759757940200e-04 1.2803945902597756e-04 0.0000000000000000e+00  6.5166263763745934e-04 1.7288772566571216e-04 0.0000000000000000e+00  6.5452200122899102e-04 2.1045773328820386e-04 0.0000000000000000e+00  6.5848333199647097e-04 2.4101370029687281e-04 0.0000000000000000e+00  6.5963490661546942e-04 2.6087308067097463e-04 0.0000000000000000e+00  6.5974793041424979e-04 2.7363927460429585e-04 0.0000000000000000e+00  6.6018600262434573e-04 2.8395589010697507e-04 0.0000000000000000e+00  6.5897899331578179e-04 2.8684630525715804e-04 0.0000000000000000e+00  6.5716976063468348e-04 2.8385745568485453e-04 0.0000000000000000e+00  6.5399873020717655e-04 2.7799645639722727e-04 0.0000000000000000e+00  6.5233197943893439e-04 2.7166092347370187e-04 0.0000000000000000e+00  6.4864280177209072e-04 2.6384510587177496e-04 0.0000000000000000e+00  6.4512826408929906e-04 2.5379108182925573e-04 0.0000000000000000e+00  6.4227835481601894e-04 2.4301926361379746e-04 0.0000000000000000e+00  6.3921397630939999e-04 2.3266390535262116e-04 0.0000000000000000e+00  6.3493385293637481e-04 2.2537919071271412e-04 0.0000000000000000e+00  6.3154213599733852e-04 2.1767094533224358e-04 0.0000000000000000e+00  6.2754025024731170e-04 2.1314587016296431e-04 0.0000000000000000e+00  6.2231468334585061e-04 2.1019557058909251e-04 0.0000000000000000e+00  6.1726956522456045e-04 2.1119460486443311e-04 0.0000000000000000e+00  6.1203496724389372e-04 2.1180910271659557e-04 0.0000000000000000e+00  6.0712613838954769e-04 2.1597766510821328e-04 0.0000000000000000e+00  6.0274212907441280e-04 2.2241178154360199e-04 0.0000000000000000e+00  5.9913902790510493e-04 2.3314631037467195e-04 0.0000000000000000e+00  5.9955270199002128e-04 2.4177840445254684e-04 0.0000000000000000e+00  5.2001123846082131e-04 -1.2577090903797509e-04 0.0000000000000000e+00  5.7846934728903170e-04 6.3068885609131100e-05 0.0000000000000000e+00  6.0431773507902981e-04 1.2489427958313885e-04 0.0000000000000000e+00  6.1697266966837319e-04 1.6867776920312451e-04 0.0000000000000000e+00  6.2677694252971227e-04 2.0741875426703198e-04 0.0000000000000000e+00  6.3559185069484271e-04 2.3712294405532901e-04 0.0000000000000000e+00  6.4503271038400035e-04 2.5931458981680002e-04 0.0000000000000000e+00  6.5076641091697850e-04 2.7310784999006859e-04 0.0000000000000000e+00  6.5325475100009125e-04 2.8305245852474720e-04 0.0000000000000000e+00  6.5782963906670707e-04 2.8719989855289152e-04 0.0000000000000000e+00  6.5897307470413099e-04 2.8535901503491299e-04 0.0000000000000000e+00  6.5883295270506462e-04 2.8042803481779848e-04 0.0000000000000000e+00  6.5607492283608845e-04 2.7229844570175288e-04 0.0000000000000000e+00  6.5530717594176663e-04 2.6680592359555974e-04 0.0000000000000000e+00  6.5302931449628509e-04 2.5531497840058112e-04 0.0000000000000000e+00  6.4943789984876711e-04 2.4423053908316717e-04 0.0000000000000000e+00  6.4551998783891060e-04 2.3560634637970551e-04 0.0000000000000000e+00  6.3988000174382991e-04 2.2808733960081099e-04 0.0000000000000000e+00  6.3477656666703641e-04 2.1990969829208674e-04 0.0000000000000000e+00  6.2901648190388749e-04 2.1623255826318022e-04 0.0000000000000000e+00  6.2322195004918556e-04 2.1336371574751881e-04 0.0000000000000000e+00  6.1671114314131720e-04 2.1437285132384608e-04 0.0000000000000000e+00  6.1068387743827307e-04 2.1604627918743989e-04 0.0000000000000000e+00  6.0398361151432344e-04 2.1927187020304406e-04 0.0000000000000000e+00  5.9715400615014357e-04 2.2485907570993528e-04 0.0000000000000000e+00  5.9410230779181764e-04 2.3401553912751261e-04 0.0000000000000000e+00  5.9192780025236547e-04 2.4128729025003215e-04 0.0000000000000000e+00  </DataArray> 
</PointData> 
</Piece>
</UnstructuredGrid>
</VTKFile>