<?xml version="1.0"?>
<VTKFile type="UnstructuredGrid"  version="0.1"  >
<UnstructuredGrid>
<Piece  NumberOfPoints="135" NumberOfCells="208">
<Points>
<DataArray  type="Float64"  NumberOfComponents="3"  format="ascii">1 1 0  1.076923076923077 1 0  1.153846153846154 1 0  1.230769230769231 1 0  1.307692307692308 1 0  1.384615384615385 1 0  1.461538461538462 1 0  1.538461538461538 1 0  1.615384615384615 1 0  1.692307692307692 1 0  1.769230769230769 1 0  1.846153846153846 1 0  1.923076923076923 1 0  2 1 0  2.076923076923077 1 0  2.153846153846154 1 0  2.230769230769231 1 0  2.307692307692307 1 0  2.384615384615385 1 0  2.461538461538462 1 0  2.538461538461538 1 0  2.615384615384615 1 0  2.692307692307693 1 0  2.769230769230769 1 0  2.846153846153846 1 0  2.923076923076923 1 0  3 1 0  1 1.0625 0  1.076923076923077 1.0625 0  1.153846153846154 1.0625 0  1.230769230769231 1.0625 0  1.307692307692308 1.0625 0  1.384615384615385 1.0625 0  1.461538461538462 1.0625 0  1.538461538461538 1.0625 0  1.615384615384615 1.0625 0  1.692307692307692 1.0625 0  1.769230769230769 1.0625 0  1.846153846153846 1.0625 0  1.923076923076923 1.0625 0  2 1.0625 0  2.076923076923077 1.0625 0  2.153846153846154 1.0625 0  2.230769230769231 1.0625 0  2.307692307692307 1.0625 0  2.384615384615385 1.0625 0  2.461538461538462 1.0625 0  2.538461538461538 1.0625 0  2.615384615384615 1.0625 0  2.692307692307693 1.0625 0  2.769230769230769 1.0625 0  2.846153846153846 1.0625 0  2.923076923076923 1.0625 0  3 1.0625 0  1 1.125 0  1.076923076923077 1.125 0  1.153846153846154 1.125 0  1.230769230769231 1.125 0  1.307692307692308 1.125 0  1.384615384615385 1.125 0  1.461538461538462 1.125 0  1.538461538461538 1.125 0  1.615384615384615 1.125 0  1.692307692307692 1.125 0  1.769230769230769 1.125 0  1.846153846153846 1.125 0  1.923076923076923 1.125 0  2 1.125 0  2.076923076923077 1.125 0  2.153846153846154 1.125 0  2.230769230769231 1.125 0  2.307692307692307 1.125 0  2.384615384615385 1.125 0  2.461538461538462 1.125 0  2.538461538461538 1.125 0  2.615384615384615 1.125 0  2.692307692307693 1.125 0  2.769230769230769 1.125 0  2.846153846153846 1.125 0  2.923076923076923 1.125 0  3 1.125 0  1 1.1875 0  1.076923076923077 1.1875 0  1.153846153846154 1.1875 0  1.230769230769231 1.1875 0  1.307692307692308 1.1875 0  1.384615384615385 1.1875 0  1.461538461538462 1.1875 0  1.538461538461538 1.1875 0  1.615384615384615 1.1875 0  1.692307692307692 1.1875 0  1.769230769230769 1.1875 0  1.846153846153846 1.1875 0  1.923076923076923 1.1875 0  2 1.1875 0  2.076923076923077 1.1875 0  2.153846153846154 1.1875 0  2.230769230769231 1.1875 0  2.307692307692307 1.1875 0  2.384615384615385 1.1875 0  2.461538461538462 1.1875 0  2.538461538461538 1.1875 0  2.615384615384615 1.1875 0  2.692307692307693 1.1875 0  2.769230769230769 1.1875 0  2.846153846153846 1.1875 0  2.923076923076923 1.1875 0  3 1.1875 0  1 1.25 0  1.076923076923077 1.25 0  1.153846153846154 1.25 0  1.230769230769231 1.25 0  1.307692307692308 1.25 0  1.384615384615385 1.25 0  1.461538461538462 1.25 0  1.538461538461538 1.25 0  1.615384615384615 1.25 0  1.692307692307692 1.25 0  1.769230769230769 1.25 0  1.846153846153846 1.25 0  1.923076923076923 1.25 0  2 1.25 0  2.076923076923077 1.25 0  2.153846153846154 1.25 0  2.230769230769231 1.25 0  2.307692307692307 1.25 0  2.384615384615385 1.25 0  2.461538461538462 1.25 0  2.538461538461538 1.25 0  2.615384615384615 1.25 0  2.692307692307693 1.25 0  2.769230769230769 1.25 0  2.846153846153846 1.25 0  2.923076923076923 1.25 0  3 1.25 0  </DataArray>
</Points>
<Cells>
<DataArray  type="UInt32"  Name="connectivity"  format="ascii">0 1 28  0 27 28  1 2 29  1 28 29  2 3 30  2 29 30  3 4 31  3 30 31  4 5 32  4 31 32  5 6 33  5 32 33  6 7 34  6 33 34  7 8 35  7 34 35  8 9 36  8 35 36  9 10 37  9 36 37  10 11 38  10 37 38  11 12 39  11 38 39  12 13 40  12 39 40  13 14 41  13 40 41  14 15 42  14 41 42  15 16 43  15 42 43  16 17 44  16 43 44  17 18 45  17 44 45  18 19 46  18 45 46  19 20 47  19 46 47  20 21 48  20 47 48  21 22 49  21 48 49  22 23 50  22 49 50  23 24 51  23 50 51  24 25 52  24 51 52  25 26 53  25 52 53  27 28 55  27 54 55  28 29 56  28 55 56  29 30 57  29 56 57  30 31 58  30 57 58  31 32 59  31 58 59  32 33 60  32 59 60  33 34 61  33 60 61  34 35 62  34 61 62  35 36 63  35 62 63  36 37 64  36 63 64  37 38 65  37 64 65  38 39 66  38 65 66  39 40 67  39 66 67  40 41 68  40 67 68  41 42 69  41 68 69  42 43 70  42 69 70  43 44 71  43 70 71  44 45 72  44 71 72  45 46 73  45 72 73  46 47 74  46 73 74  47 48 75  47 74 75  48 49 76  48 75 76  49 50 77  49 76 77  50 51 78  50 77 78  51 52 79  51 78 79  52 53 80  52 79 80  54 55 82  54 81 82  55 56 83  55 82 83  56 57 84  56 83 84  57 58 85  57 84 85  58 59 86  58 85 86  59 60 87  59 86 87  60 61 88  60 87 88  61 62 89  61 88 89  62 63 90  62 89 90  63 64 91  63 90 91  64 65 92  64 91 92  65 66 93  65 92 93  66 67 94  66 93 94  67 68 95  67 94 95  68 69 96  68 95 96  69 70 97  69 96 97  70 71 98  70 97 98  71 72 99  71 98 99  72 73 100  72 99 100  73 74 101  73 100 101  74 75 102  74 101 102  75 76 103  75 102 103  76 77 104  76 103 104  77 78 105  77 104 105  78 79 106  78 105 106  79 80 107  79 106 107  81 82 109  81 108 109  82 83 110  82 109 110  83 84 111  83 110 111  84 85 112  84 111 112  85 86 113  85 112 113  86 87 114  86 113 114  87 88 115  87 114 115  88 89 116  88 115 116  89 90 117  89 116 117  90 91 118  90 117 118  91 92 119  91 118 119  92 93 120  92 119 120  93 94 121  93 120 121  94 95 122  94 121 122  95 96 123  95 122 123  96 97 124  96 123 124  97 98 125  97 124 125  98 99 126  98 125 126  99 100 127  99 126 127  100 101 128  100 127 128  101 102 129  101 128 129  102 103 130  102 129 130  103 104 131  103 130 131  104 105 132  104 131 132  105 106 133  105 132 133  106 107 134  106 133 134  </DataArray>
<DataArray  type="UInt32"  Name="offsets"  format="ascii">3 6 9 12 15 18 21 24 27 30 33 36 39 42 45 48 51 54 57 60 63 66 69 72 75 78 81 84 87 90 93 96 99 102 105 108 111 114 117 120 123 126 129 132 135 138 141 144 147 150 153 156 159 162 165 168 171 174 177 180 183 186 189 192 195 198 201 204 207 210 213 216 219 222 225 228 231 234 237 240 243 246 249 252 255 258 261 264 267 270 273 276 279 282 285 288 291 294 297 300 303 306 309 312 315 318 321 324 327 330 333 336 339 342 345 348 351 354 357 360 363 366 369 372 375 378 381 384 387 390 393 396 399 402 405 408 411 414 417 420 423 426 429 432 435 438 441 444 447 450 453 456 459 462 465 468 471 474 477 480 483 486 489 492 495 498 501 504 507 510 513 516 519 522 525 528 531 534 537 540 543 546 549 552 555 558 561 564 567 570 573 576 579 582 585 588 591 594 597 600 603 606 609 612 615 618 621 624 </DataArray>
<DataArray  type="UInt8"  Name="types"  format="ascii">5 5 5 5 5 5 5 5 5 5 5 5 5 5 5 5 5 5 5 5 5 5 5 5 5 5 5 5 5 5 5 5 5 5 5 5 5 5 5 5 5 5 5 5 5 5 5 5 5 5 5 5 5 5 5 5 5 5 5 5 5 5 5 5 5 5 5 5 5 5 5 5 5 5 5 5 5 5 5 5 5 5 5 5 5 5 5 5 5 5 5 5 5 5 5 5 5 5 5 5 5 5 5 5 5 5 5 5 5 5 5 5 5 5 5 5 5 5 5 5 5 5 5 5 5 5 5 5 5 5 5 5 5 5 5 5 5 5 5 5 5 5 5 5 5 5 5 5 5 5 5 5 5 5 5 5 5 5 5 5 5 5 5 5 5 5 5 5 5 5 5 5 5 5 5 5 5 5 5 5 5 5 5 5 5 5 5 5 5 5 5 5 5 5 5 5 5 5 5 5 5 5 5 5 5 5 5 5 </DataArray>
</Cells>
<PointData  Vectors="Displacement"> 
<DataArray  type="Float64"  Name="Displacement"  NumberOfComponents="3" format="ascii">7.6597307574406486e-04 1.4463440534826739e-04 0.0000000000000000e+00  8.1460465280137927e-04 5.7763479870224214e-05 0.0000000000000000e+00  8.2599490928397378e-04 1.1967605062516049e-04 0.0000000000000000e+00  8.1412147502140807e-04 1.6805179533529120e-04 0.0000000000000000e+00  8.0036703073993508e-04 2.0764462644522308e-04 0.0000000000000000e+00  7.8435549879799209e-04 2.3817692563082122e-04 0.0000000000000000e+00  7.6920040273821576e-04 2.6068752147609051e-04 0.0000000000000000e+00  7.5232739504567760e-04 2.7562243163641731e-04 0.0000000000000000e+00  7.3948840157488842e-04 2.8242769014819301e-04 0.0000000000000000e+00  7.2689276313685073e-04 2.8792137044755274e-04 0.0000000000000000e+00  7.1671257513729965e-04 2.8751056403931812e-04 0.0000000000000000e+00  7.0645927846094852e-04 2.8539895466678879e-04 0.0000000000000000e+00  6.9756380274186690e-04 2.7980504921691190e-04 0.0000000000000000e+00  6.8922354938736057e-04 2.6861047998827771e-04 0.0000000000000000e+00  6.8568454550367488e-04 2.5730784939983120e-04 0.0000000000000000e+00  6.8178375605875254e-04 2.4813535462001138e-04 0.0000000000000000e+00  6.7951408460834180e-04 2.3850148550732866e-04 0.0000000000000000e+00  6.7681578042298306e-04 2.3324180973653921e-04 0.0000000000000000e+00  6.7564518824108559e-04 2.2731799980942949e-04 0.0000000000000000e+00  6.7489323592138028e-04 2.2488858455698137e-04 0.0000000000000000e+00  6.7362029920797046e-04 2.2295581319896918e-04 0.0000000000000000e+00  6.7492277795872229e-04 2.2058340724175028e-04 0.0000000000000000e+00  6.7784160490982014e-04 2.2169566349254145e-04 0.0000000000000000e+00  6.8117626541698551e-04 2.2607846601212797e-04 0.0000000000000000e+00  6.8400352234961027e-04 2.3530706712116559e-04 0.0000000000000000e+00  6.8919838086930324e-04 2.3802402479570047e-04 0.0000000000000000e+00  7.0648213467693847e-04 2.9787402388949336e-04 0.0000000000000000e+00  7.9866560817129127e-04 4.6600590736815375e-05 0.0000000000000000e+00  7.9686131681384973e-04 6.2608316557064654e-05 0.0000000000000000e+00  7.8640885065794453e-04 1.2091363850674211e-04 0.0000000000000000e+00  7.7728751199084109e-04 1.7157941846519413e-04 0.0000000000000000e+00  7.6832547804349795e-04 2.1174083929181194e-04 0.0000000000000000e+00  7.6050094839262734e-04 2.4375808344112972e-04 0.0000000000000000e+00  7.5038092125474473e-04 2.6705958432499024e-04 0.0000000000000000e+00  7.4122771810998240e-04 2.8158179358094557e-04 0.0000000000000000e+00  7.3174498042334103e-04 2.8826820991066985e-04 0.0000000000000000e+00  7.2370630241909667e-04 2.9282811727372125e-04 0.0000000000000000e+00  7.1649648717174322e-04 2.9229628737637855e-04 0.0000000000000000e+00  7.0905820873937728e-04 2.9035182481571372e-04 0.0000000000000000e+00  7.0363958840199113e-04 2.8349425838832101e-04 0.0000000000000000e+00  6.9831528730494126e-04 2.7224848356441458e-04 0.0000000000000000e+00  6.9358162969613429e-04 2.5913707791504453e-04 0.0000000000000000e+00  6.9020535643029711e-04 2.5038636213026182e-04 0.0000000000000000e+00  6.8597121517398470e-04 2.4024005021865876e-04 0.0000000000000000e+00  6.8316387197497647e-04 2.3419386714436673e-04 0.0000000000000000e+00  6.8111050241067130e-04 2.2830632096176360e-04 0.0000000000000000e+00  6.7854326200005521e-04 2.2565085948428890e-04 0.0000000000000000e+00  6.7731633955592544e-04 2.2302211923076813e-04 0.0000000000000000e+00  6.7776461053226870e-04 2.2023155198709382e-04 0.0000000000000000e+00  6.7875040990350490e-04 2.2156728676171357e-04 0.0000000000000000e+00  6.7901909857075323e-04 2.2552746301066247e-04 0.0000000000000000e+00  6.7987499169632837e-04 2.3476358607713951e-04 0.0000000000000000e+00  6.7832290573039680e-04 2.4598310617045851e-04 0.0000000000000000e+00  6.7926720581260860e-04 2.7054621041393983e-04 0.0000000000000000e+00  7.5511822185694519e-04 4.3968438292980688e-06 0.0000000000000000e+00  7.6189224303434245e-04 6.6880285470970400e-05 0.0000000000000000e+00  7.5263567147053389e-04 1.2560330025697535e-04 0.0000000000000000e+00  7.4409278472824638e-04 1.7675131096652095e-04 0.0000000000000000e+00  7.3839063934037731e-04 2.1545377666112983e-04 0.0000000000000000e+00  7.3471408801791070e-04 2.4710829642386148e-04 0.0000000000000000e+00  7.3107551979625766e-04 2.7088914218600636e-04 0.0000000000000000e+00  7.2806083780023912e-04 2.8469391217472083e-04 0.0000000000000000e+00  7.2413457533524557e-04 2.9246061816435675e-04 0.0000000000000000e+00  7.2036125491606469e-04 2.9504206425645484e-04 0.0000000000000000e+00  7.1652885229682439e-04 2.9596427756270629e-04 0.0000000000000000e+00  7.1163196506336104e-04 2.9363000728435473e-04 0.0000000000000000e+00  7.0847229602451645e-04 2.8509100675545623e-04 0.0000000000000000e+00  7.0501113736865027e-04 2.7557234568634340e-04 0.0000000000000000e+00  7.0110646543307625e-04 2.6203991803345014e-04 0.0000000000000000e+00  6.9704192160843477e-04 2.5249156339839904e-04 0.0000000000000000e+00  6.9358019298099789e-04 2.4280593256968358e-04 0.0000000000000000e+00  6.8888234587257183e-04 2.3630931272019856e-04 0.0000000000000000e+00  6.8541122257872534e-04 2.3040819707305024e-04 0.0000000000000000e+00  6.8221447115698571e-04 2.2708557808547787e-04 0.0000000000000000e+00  6.8004755622122774e-04 2.2308150804793944e-04 0.0000000000000000e+00  6.7950281590140656e-04 2.2077834676813177e-04 0.0000000000000000e+00  6.7791952027384541e-04 2.2217238971917102e-04 0.0000000000000000e+00  6.7664509051370419e-04 2.2711235884329578e-04 0.0000000000000000e+00  6.7445672038721140e-04 2.3616689752011400e-04 0.0000000000000000e+00  6.7275273849262251e-04 2.4846331613567133e-04 0.0000000000000000e+00  6.7300724100354946e-04 2.6250434481303104e-04 0.0000000000000000e+00  6.9762305637433681e-04 -3.6334068884560560e-05 0.0000000000000000e+00  7.0897962202213821e-04 6.4081695659415705e-05 0.0000000000000000e+00  7.0688298755926878e-04 1.3003818390758574e-04 0.0000000000000000e+00  7.0635201534588422e-04 1.7909177616558264e-04 0.0000000000000000e+00  7.0863562470259737e-04 2.1640912948423392e-04 0.0000000000000000e+00  7.1085087104696509e-04 2.4745746807844420e-04 0.0000000000000000e+00  7.1282100149808322e-04 2.7212450527769382e-04 0.0000000000000000e+00  7.1459299011745418e-04 2.8512902110333405e-04 0.0000000000000000e+00  7.1655880086372013e-04 2.9279694157997432e-04 0.0000000000000000e+00  7.1759305636330854e-04 2.9629991995865030e-04 0.0000000000000000e+00  7.1548211796274084e-04 2.9759922831329167e-04 0.0000000000000000e+00  7.1501056135006775e-04 2.9538992965027453e-04 0.0000000000000000e+00  7.1342736846531619e-04 2.8654460100239440e-04 0.0000000000000000e+00  7.1100438261621833e-04 2.7694830139981294e-04 0.0000000000000000e+00  7.0802227015218306e-04 2.6451931170472524e-04 0.0000000000000000e+00  7.0423529467390517e-04 2.5432548331202724e-04 0.0000000000000000e+00  6.9999708413769274e-04 2.4559777084886137e-04 0.0000000000000000e+00  6.9476271104139777e-04 2.3861092588840251e-04 0.0000000000000000e+00  6.9011519398804410e-04 2.3388447991345808e-04 0.0000000000000000e+00  6.8578259600585319e-04 2.2885635305188500e-04 0.0000000000000000e+00  6.8260126923070557e-04 2.2481009261651533e-04 0.0000000000000000e+00  6.8037690686464990e-04 2.2160424731111001e-04 0.0000000000000000e+00  6.7664693976320143e-04 2.2419230589121840e-04 0.0000000000000000e+00  6.7368991077541678e-04 2.2917002762070767e-04 0.0000000000000000e+00  6.7076290538165364e-04 2.3868188542774477e-04 0.0000000000000000e+00  6.6833518458909059e-04 2.4873850250474677e-04 0.0000000000000000e+00  6.6917664769600594e-04 2.6001671476365664e-04 0.0000000000000000e+00  5.7054679940276199e-04 -1.3179281242548928e-04 0.0000000000000000e+00  6.3237419388831708e-04 6.0281890895352208e-05 0.0000000000000000e+00  6.5564922225503546e-04 1.2671116833186692e-04 0.0000000000000000e+00  6.6899969150258055e-04 1.7655708038704897e-04 0.0000000000000000e+00  6.7864191459925962e-04 2.1325352561627495e-04 0.0000000000000000e+00  6.8751250811846358e-04 2.4457713508536439e-04 0.0000000000000000e+00  6.9661964617311273e-04 2.6999347974775628e-04 0.0000000000000000e+00  7.0492776839237430e-04 2.8304069231832076e-04 0.0000000000000000e+00  7.0944183563849579e-04 2.9095912822318487e-04 0.0000000000000000e+00  7.1407541915198341e-04 2.9600284591270286e-04 0.0000000000000000e+00  7.1575605749089346e-04 2.9846362662182605e-04 0.0000000000000000e+00  7.1800695295399890e-04 2.9480878922223420e-04 0.0000000000000000e+00  7.1947337974434262e-04 2.8747234026640651e-04 0.0000000000000000e+00  7.1892135875953518e-04 2.7795906138536873e-04 0.0000000000000000e+00  7.1624679152500670e-04 2.6783276355368460e-04 0.0000000000000000e+00  7.1064583758878954e-04 2.5641447625370775e-04 0.0000000000000000e+00  7.0580738662098211e-04 2.4919377413886991e-04 0.0000000000000000e+00  7.0022449414897353e-04 2.4184481901115874e-04 0.0000000000000000e+00  6.9539180522891497e-04 2.3685033344572639e-04 0.0000000000000000e+00  6.9002471000316891e-04 2.3103274503003137e-04 0.0000000000000000e+00  6.8656279145422599e-04 2.2733077494934933e-04 0.0000000000000000e+00  6.8052641099275424e-04 2.2436701574154354e-04 0.0000000000000000e+00  6.7514555118616500e-04 2.2689671636575982e-04 0.0000000000000000e+00  6.6958847727160672e-04 2.3144959185895543e-04 0.0000000000000000e+00  6.6584720333204902e-04 2.4019343411254272e-04 0.0000000000000000e+00  6.6323452008593933e-04 2.4910924620226167e-04 0.0000000000000000e+00  6.6309944850893084e-04 2.5934134919018806e-04 0.0000000000000000e+00  </DataArray> 
</PointData> 
</Piece>
</UnstructuredGrid>
</VTKFile>