<?xml version="1.0"?>
<VTKFile type="UnstructuredGrid"  version="0.1"  >
<UnstructuredGrid>
<Piece  NumberOfPoints="135" NumberOfCells="208">
<Points>
<DataArray  type="Float64"  NumberOfComponents="3"  format="ascii">1 1 0  1.076923076923077 1 0  1.153846153846154 1 0  1.230769230769231 1 0  1.307692307692308 1 0  1.384615384615385 1 0  1.461538461538462 1 0  1.538461538461538 1 0  1.615384615384615 1 0  1.692307692307692 1 0  1.769230769230769 1 0  1.846153846153846 1 0  1.923076923076923 1 0  2 1 0  2.076923076923077 1 0  2.153846153846154 1 0  2.230769230769231 1 0  2.307692307692307 1 0  2.384615384615385 1 0  2.461538461538462 1 0  2.538461538461538 1 0  2.615384615384615 1 0  2.692307692307693 1 0  2.769230769230769 1 0  2.846153846153846 1 0  2.923076923076923 1 0  3 1 0  1 1.0625 0  1.076923076923077 1.0625 0  1.153846153846154 1.0625 0  1.230769230769231 1.0625 0  1.307692307692308 1.0625 0  1.384615384615385 1.0625 0  1.461538461538462 1.0625 0  1.538461538461538 1.0625 0  1.615384615384615 1.0625 0  1.692307692307692 1.0625 0  1.769230769230769 1.0625 0  1.846153846153846 1.0625 0  1.923076923076923 1.0625 0  2 1.0625 0  2.076923076923077 1.0625 0  2.153846153846154 1.0625 0  2.230769230769231 1.0625 0  2.307692307692307 1.0625 0  2.384615384615385 1.0625 0  2.461538461538462 1.0625 0  2.538461538461538 1.0625 0  2.615384615384615 1.0625 0  2.692307692307693 1.0625 0  2.769230769230769 1.0625 0  2.846153846153846 1.0625 0  2.923076923076923 1.0625 0  3 1.0625 0  1 1.125 0  1.076923076923077 1.125 0  1.153846153846154 1.125 0  1.230769230769231 1.125 0  1.307692307692308 1.125 0  1.384615384615385 1.125 0  1.461538461538462 1.125 0  1.538461538461538 1.125 0  1.615384615384615 1.125 0  1.692307692307692 1.125 0  1.769230769230769 1.125 0  1.846153846153846 1.125 0  1.923076923076923 1.125 0  2 1.125 0  2.076923076923077 1.125 0  2.153846153846154 1.125 0  2.230769230769231 1.125 0  2.307692307692307 1.125 0  2.384615384615385 1.125 0  2.461538461538462 1.125 0  2.538461538461538 1.125 0  2.615384615384615 1.125 0  2.692307692307693 1.125 0  2.769230769230769 1.125 0  2.846153846153846 1.125 0  2.923076923076923 1.125 0  3 1.125 0  1 1.1875 0  1.076923076923077 1.1875 0  1.153846153846154 1.1875 0  1.230769230769231 1.1875 0  1.307692307692308 1.1875 0  1.384615384615385 1.1875 0  1.461538461538462 1.1875 0  1.538461538461538 1.1875 0  1.615384615384615 1.1875 0  1.692307692307692 1.1875 0  1.769230769230769 1.1875 0  1.846153846153846 1.1875 0  1.923076923076923 1.1875 0  2 1.1875 0  2.076923076923077 1.1875 0  2.153846153846154 1.1875 0  2.230769230769231 1.1875 0  2.307692307692307 1.1875 0  2.384615384615385 1.1875 0  2.461538461538462 1.1875 0  2.538461538461538 1.1875 0  2.615384615384615 1.1875 0  2.692307692307693 1.1875 0  2.769230769230769 1.1875 0  2.846153846153846 1.1875 0  2.923076923076923 1.1875 0  3 1.1875 0  1 1.25 0  1.076923076923077 1.25 0  1.153846153846154 1.25 0  1.230769230769231 1.25 0  1.307692307692308 1.25 0  1.384615384615385 1.25 0  1.461538461538462 1.25 0  1.538461538461538 1.25 0  1.615384615384615 1.25 0  1.692307692307692 1.25 0  1.769230769230769 1.25 0  1.846153846153846 1.25 0  1.923076923076923 1.25 0  2 1.25 0  2.076923076923077 1.25 0  2.153846153846154 1.25 0  2.230769230769231 1.25 0  2.307692307692307 1.25 0  2.384615384615385 1.25 0  2.461538461538462 1.25 0  2.538461538461538 1.25 0  2.615384615384615 1.25 0  2.692307692307693 1.25 0  2.769230769230769 1.25 0  2.846153846153846 1.25 0  2.923076923076923 1.25 0  3 1.25 0  </DataArray>
</Points>
<Cells>
<DataArray  type="UInt32"  Name="connectivity"  format="ascii">0 1 28  0 27 28  1 2 29  1 28 29  2 3 30  2 29 30  3 4 31  3 30 31  4 5 32  4 31 32  5 6 33  5 32 33  6 7 34  6 33 34  7 8 35  7 34 35  8 9 36  8 35 36  9 10 37  9 36 37  10 11 38  10 37 38  11 12 39  11 38 39  12 13 40  12 39 40  13 14 41  13 40 41  14 15 42  14 41 42  15 16 43  15 42 43  16 17 44  16 43 44  17 18 45  17 44 45  18 19 46  18 45 46  19 20 47  19 46 47  20 21 48  20 47 48  21 22 49  21 48 49  22 23 50  22 49 50  23 24 51  23 50 51  24 25 52  24 51 52  25 26 53  25 52 53  27 28 55  27 54 55  28 29 56  28 55 56  29 30 57  29 56 57  30 31 58  30 57 58  31 32 59  31 58 59  32 33 60  32 59 60  33 34 61  33 60 61  34 35 62  34 61 62  35 36 63  35 62 63  36 37 64  36 63 64  37 38 65  37 64 65  38 39 66  38 65 66  39 40 67  39 66 67  40 41 68  40 67 68  41 42 69  41 68 69  42 43 70  42 69 70  43 44 71  43 70 71  44 45 72  44 71 72  45 46 73  45 72 73  46 47 74  46 73 74  47 48 75  47 74 75  48 49 76  48 75 76  49 50 77  49 76 77  50 51 78  50 77 78  51 52 79  51 78 79  52 53 80  52 79 80  54 55 82  54 81 82  55 56 83  55 82 83  56 57 84  56 83 84  57 58 85  57 84 85  58 59 86  58 85 86  59 60 87  59 86 87  60 61 88  60 87 88  61 62 89  61 88 89  62 63 90  62 89 90  63 64 91  63 90 91  64 65 92  64 91 92  65 66 93  65 92 93  66 67 94  66 93 94  67 68 95  67 94 95  68 69 96  68 95 96  69 70 97  69 96 97  70 71 98  70 97 98  71 72 99  71 98 99  72 73 100  72 99 100  73 74 101  73 100 101  74 75 102  74 101 102  75 76 103  75 102 103  76 77 104  76 103 104  77 78 105  77 104 105  78 79 106  78 105 106  79 80 107  79 106 107  81 82 109  81 108 109  82 83 110  82 109 110  83 84 111  83 110 111  84 85 112  84 111 112  85 86 113  85 112 113  86 87 114  86 113 114  87 88 115  87 114 115  88 89 116  88 115 116  89 90 117  89 116 117  90 91 118  90 117 118  91 92 119  91 118 119  92 93 120  92 119 120  93 94 121  93 120 121  94 95 122  94 121 122  95 96 123  95 122 123  96 97 124  96 123 124  97 98 125  97 124 125  98 99 126  98 125 126  99 100 127  99 126 127  100 101 128  100 127 128  101 102 129  101 128 129  102 103 130  102 129 130  103 104 131  103 130 131  104 105 132  104 131 132  105 106 133  105 132 133  106 107 134  106 133 134  </DataArray>
<DataArray  type="UInt32"  Name="offsets"  format="ascii">3 6 9 12 15 18 21 24 27 30 33 36 39 42 45 48 51 54 57 60 63 66 69 72 75 78 81 84 87 90 93 96 99 102 105 108 111 114 117 120 123 126 129 132 135 138 141 144 147 150 153 156 159 162 165 168 171 174 177 180 183 186 189 192 195 198 201 204 207 210 213 216 219 222 225 228 231 234 237 240 243 246 249 252 255 258 261 264 267 270 273 276 279 282 285 288 291 294 297 300 303 306 309 312 315 318 321 324 327 330 333 336 339 342 345 348 351 354 357 360 363 366 369 372 375 378 381 384 387 390 393 396 399 402 405 408 411 414 417 420 423 426 429 432 435 438 441 444 447 450 453 456 459 462 465 468 471 474 477 480 483 486 489 492 495 498 501 504 507 510 513 516 519 522 525 528 531 534 537 540 543 546 549 552 555 558 561 564 567 570 573 576 579 582 585 588 591 594 597 600 603 606 609 612 615 618 621 624 </DataArray>
<DataArray  type="UInt8"  Name="types"  format="ascii">5 5 5 5 5 5 5 5 5 5 5 5 5 5 5 5 5 5 5 5 5 5 5 5 5 5 5 5 5 5 5 5 5 5 5 5 5 5 5 5 5 5 5 5 5 5 5 5 5 5 5 5 5 5 5 5 5 5 5 5 5 5 5 5 5 5 5 5 5 5 5 5 5 5 5 5 5 5 5 5 5 5 5 5 5 5 5 5 5 5 5 5 5 5 5 5 5 5 5 5 5 5 5 5 5 5 5 5 5 5 5 5 5 5 5 5 5 5 5 5 5 5 5 5 5 5 5 5 5 5 5 5 5 5 5 5 5 5 5 5 5 5 5 5 5 5 5 5 5 5 5 5 5 5 5 5 5 5 5 5 5 5 5 5 5 5 5 5 5 5 5 5 5 5 5 5 5 5 5 5 5 5 5 5 5 5 5 5 5 5 5 5 5 5 5 5 5 5 5 5 5 5 5 5 5 5 5 5 </DataArray>
</Cells>
<PointData  Vectors="Displacement"> 
<DataArray  type="Float64"  Name="Displacement"  NumberOfComponents="3" format="ascii">-5.1007303551032273e-06 7.1913227883792024e-05 0.0000000000000000e+00  1.7085341799116418e-05 1.4793907526677646e-05 0.0000000000000000e+00  2.8923544319054040e-05 1.3573643215712308e-05 0.0000000000000000e+00  2.7798821757099305e-05 2.0355665396288189e-05 0.0000000000000000e+00  2.0978426049438108e-05 2.7543609157724121e-05 0.0000000000000000e+00  1.4115971660189348e-05 3.0810559530891954e-05 0.0000000000000000e+00  7.7786745209208219e-06 3.4741911159969697e-05 0.0000000000000000e+00  5.0447359565095942e-06 3.5653036311893656e-05 0.0000000000000000e+00  4.4475410241911532e-06 3.5398993629873031e-05 0.0000000000000000e+00  3.7194362233434127e-06 3.4945547511466311e-05 0.0000000000000000e+00  3.2903480113690148e-06 3.4849633389100850e-05 0.0000000000000000e+00  2.7212925948997329e-06 3.4131587027666923e-05 0.0000000000000000e+00  2.3550266160200873e-06 3.4002453845401802e-05 0.0000000000000000e+00  1.9262329482052919e-06 3.3138628437310085e-05 0.0000000000000000e+00  1.5869826375673620e-06 3.2886406967070052e-05 0.0000000000000000e+00  1.2979026167259117e-06 3.1953584986620611e-05 0.0000000000000000e+00  9.7447645939617297e-07 3.1512504185503425e-05 0.0000000000000000e+00  8.1167650846674703e-07 3.0554014796386751e-05 0.0000000000000000e+00  5.0390459865149477e-07 2.9881406796809990e-05 0.0000000000000000e+00  4.8667812407057265e-07 2.8919653926184353e-05 0.0000000000000000e+00  2.8076461057235512e-07 2.8001089703319908e-05 0.0000000000000000e+00  1.1018631887577979e-06 2.7579950547969503e-05 0.0000000000000000e+00  3.2113823339601157e-06 2.6784977054873544e-05 0.0000000000000000e+00  7.4209195225658983e-06 2.8585643836820383e-05 0.0000000000000000e+00  1.1936791818437966e-05 2.8795829437871997e-05 0.0000000000000000e+00  1.4279214007671065e-05 2.8254239438240638e-05 0.0000000000000000e+00  1.0499655494284725e-05 2.6402168705782355e-05 0.0000000000000000e+00  4.4708765772209498e-05 3.9651225408378219e-05 0.0000000000000000e+00  3.8495901906615564e-05 1.3213956669912134e-05 0.0000000000000000e+00  3.0468124946472650e-05 1.2482102322124139e-05 0.0000000000000000e+00  2.2809569514494756e-05 2.1598172471291513e-05 0.0000000000000000e+00  1.4797416444463145e-05 3.1129803828046524e-05 0.0000000000000000e+00  9.3716464614337622e-06 3.2919879523522129e-05 0.0000000000000000e+00  5.7470424472340137e-06 3.4414648679868426e-05 0.0000000000000000e+00  3.1713089125599008e-06 3.4820322043393596e-05 0.0000000000000000e+00  2.4967052218145280e-06 3.5048071524166771e-05 0.0000000000000000e+00  2.0979144695575045e-06 3.4909654354665410e-05 0.0000000000000000e+00  1.7935716501007858e-06 3.4819344832915992e-05 0.0000000000000000e+00  1.4479499933281083e-06 3.4480657931333663e-05 0.0000000000000000e+00  1.2843071814479246e-06 3.4272838309787500e-05 0.0000000000000000e+00  1.0158440377780547e-06 3.3779880168291085e-05 0.0000000000000000e+00  9.3894640452699722e-07 3.3455052531376971e-05 0.0000000000000000e+00  7.4790865035933256e-07 3.2835807358380637e-05 0.0000000000000000e+00  7.3508088560259287e-07 3.2393171056660650e-05 0.0000000000000000e+00  6.3684551661174628e-07 3.1679539937800863e-05 0.0000000000000000e+00  6.8880029872142060e-07 3.1105357194959091e-05 0.0000000000000000e+00  6.7119621832243714e-07 3.0330615905441027e-05 0.0000000000000000e+00  8.9967332353300304e-07 2.9544301371400017e-05 0.0000000000000000e+00  1.7084934741723266e-06 2.8560884347990512e-05 0.0000000000000000e+00  3.1168119882242154e-06 2.7387444762022649e-05 0.0000000000000000e+00  7.1371637406740411e-06 2.8538109530087162e-05 0.0000000000000000e+00  1.1360219712994160e-05 2.8691470138076307e-05 0.0000000000000000e+00  1.4473899455184997e-05 2.9804426510473028e-05 0.0000000000000000e+00  1.4785023331660803e-05 2.8562401768171262e-05 0.0000000000000000e+00  6.1568472350919247e-05 1.1063205283610725e-05 0.0000000000000000e+00  5.8772440921863981e-05 1.8604824768766795e-05 0.0000000000000000e+00  4.2556462970100215e-05 2.4342612468600557e-05 0.0000000000000000e+00  2.1214776766175995e-05 3.1919657089492711e-05 0.0000000000000000e+00  1.3810862121420807e-05 3.8506754839469976e-05 0.0000000000000000e+00  8.8768644954915833e-06 3.7935075013897514e-05 0.0000000000000000e+00  5.5018321025484769e-06 3.7762191180329965e-05 0.0000000000000000e+00  1.3380728603103681e-06 3.8465289901572019e-05 0.0000000000000000e+00  1.4740643163895811e-06 3.8280393232374613e-05 0.0000000000000000e+00  1.2487416355493876e-06 3.8438342451054954e-05 0.0000000000000000e+00  1.0360700330369685e-06 3.8227142246322446e-05 0.0000000000000000e+00  1.0302717188450225e-06 3.8124743758761965e-05 0.0000000000000000e+00  8.9441099585220327e-07 3.7761070645341614e-05 0.0000000000000000e+00  9.3626532123688772e-07 3.7469771270443057e-05 0.0000000000000000e+00  8.7005975807074416e-07 3.7007396060190314e-05 0.0000000000000000e+00  9.3507839701245270e-07 3.6532447053852110e-05 0.0000000000000000e+00  9.4551176339556438e-07 3.6005062426938156e-05 0.0000000000000000e+00  1.0252933208869420e-06 3.5357529576248692e-05 0.0000000000000000e+00  1.1174730912016347e-06 3.4761770304874244e-05 0.0000000000000000e+00  1.2090925086303870e-06 3.3940697438195538e-05 0.0000000000000000e+00  1.4074051788392926e-06 3.3203662870017205e-05 0.0000000000000000e+00  2.2189553430641913e-06 3.2155142382611458e-05 0.0000000000000000e+00  4.0491873772656884e-06 3.1368509287605579e-05 0.0000000000000000e+00  6.2600961386791220e-06 3.0307940009399712e-05 0.0000000000000000e+00  9.3874715903214151e-06 2.8619564585567603e-05 0.0000000000000000e+00  1.3532223918842451e-05 2.9690790573236414e-05 0.0000000000000000e+00  1.5457897526520632e-05 3.2013114192864596e-05 0.0000000000000000e+00  5.5140153523338780e-05 -2.3452991628172288e-05 0.0000000000000000e+00  5.3975980458461785e-05 2.2250331347482809e-05 0.0000000000000000e+00  4.7163267829451023e-05 3.8859916257264981e-05 0.0000000000000000e+00  3.1116058772816392e-05 5.1133813924905101e-05 0.0000000000000000e+00  1.5608103016981864e-05 4.2488131493199193e-05 0.0000000000000000e+00  5.8557932415018275e-06 4.1321572459877692e-05 0.0000000000000000e+00  3.0420236207041071e-06 4.0779585930771211e-05 0.0000000000000000e+00  -9.7973660350760458e-08 3.9922615242812109e-05 0.0000000000000000e+00  4.0331657178743792e-07 4.0197188192440081e-05 0.0000000000000000e+00  2.1160348493957921e-07 4.0217131258225553e-05 0.0000000000000000e+00  2.5281892207046236e-07 4.0121451211431253e-05 0.0000000000000000e+00  2.6654999710736688e-07 3.9975469225498492e-05 0.0000000000000000e+00  3.3244260612085557e-07 3.9746104558383878e-05 0.0000000000000000e+00  3.6497453301706184e-07 3.9418107559623041e-05 0.0000000000000000e+00  4.1442010768059615e-07 3.9055669834507229e-05 0.0000000000000000e+00  4.6358256876718900e-07 3.8576613645773042e-05 0.0000000000000000e+00  4.9825084639280693e-07 3.8096406790513976e-05 0.0000000000000000e+00  5.6698827193636427e-07 3.7495967150776714e-05 0.0000000000000000e+00  5.9023095346241670e-07 3.6912787085830704e-05 0.0000000000000000e+00  6.7933668005943934e-07 3.6216159362423885e-05 0.0000000000000000e+00  7.0242255881508988e-07 3.5538539065838724e-05 0.0000000000000000e+00  1.3650400629992661e-06 3.4631010430102482e-05 0.0000000000000000e+00  1.8857824889148888e-06 3.3343821120495615e-05 0.0000000000000000e+00  2.9572246619340180e-06 3.1000246616757873e-05 0.0000000000000000e+00  5.3336915173085511e-06 2.7731546993045242e-05 0.0000000000000000e+00  1.0049588715781003e-05 2.7304422671083099e-05 0.0000000000000000e+00  1.1196898142403171e-05 3.3535251566353303e-05 0.0000000000000000e+00  2.7102189203736054e-06 -6.4096026126677784e-05 0.0000000000000000e+00  2.2791409536582709e-05 2.3047837871543304e-05 0.0000000000000000e+00  2.9428908890440673e-05 4.2889406390457082e-05 0.0000000000000000e+00  3.0782492435939313e-05 5.9137603125318527e-05 0.0000000000000000e+00  2.0750991795938521e-05 4.8986887899650818e-05 0.0000000000000000e+00  1.1564627414072693e-05 5.0769716722534235e-05 0.0000000000000000e+00  -8.9794858910469844e-08 4.2491261808471153e-05 0.0000000000000000e+00  -2.6500783934262754e-07 4.1094117475237481e-05 0.0000000000000000e+00  -8.0272826285992710e-07 4.1340708032869660e-05 0.0000000000000000e+00  -2.8657651881970585e-07 4.1333131067127216e-05 0.0000000000000000e+00  -2.4979597895162044e-07 4.1361693521574220e-05 0.0000000000000000e+00  -5.1993829547901975e-09 4.1188881981049107e-05 0.0000000000000000e+00  2.0269607492055266e-07 4.1016148524269301e-05 0.0000000000000000e+00  3.5518964161792087e-07 4.0717958755803200e-05 0.0000000000000000e+00  5.2454229419868981e-07 4.0322398023696878e-05 0.0000000000000000e+00  6.3711884483878271e-07 3.9935015807717511e-05 0.0000000000000000e+00  7.6864267859230024e-07 3.9349546388714017e-05 0.0000000000000000e+00  8.5259893769153163e-07 3.8890050838612409e-05 0.0000000000000000e+00  9.4028798836806860e-07 3.8159500857370828e-05 0.0000000000000000e+00  9.9845814026010564e-07 3.7629184320439372e-05 0.0000000000000000e+00  1.0084617255943898e-06 3.6864683127664114e-05 0.0000000000000000e+00  1.2911181803342840e-06 3.6087744759061092e-05 0.0000000000000000e+00  2.6706993278565725e-06 3.3895389114495799e-05 0.0000000000000000e+00  4.5294001956967873e-06 3.1002036161035679e-05 0.0000000000000000e+00  7.3129582929745292e-06 2.7186210226561179e-05 0.0000000000000000e+00  6.2633623102128483e-06 2.6480264729618266e-05 0.0000000000000000e+00  5.6004649321731736e-06 3.4965484459339258e-05 0.0000000000000000e+00  </DataArray> 
</PointData> 
</Piece>
</UnstructuredGrid>
</VTKFile>