<?xml version="1.0"?>
<VTKFile type="UnstructuredGrid"  version="0.1"  >
<UnstructuredGrid>
<Piece  NumberOfPoints="135" NumberOfCells="208">
<Points>
<DataArray  type="Float64"  NumberOfComponents="3"  format="ascii">1 1 0  1.076923076923077 1 0  1.153846153846154 1 0  1.230769230769231 1 0  1.307692307692308 1 0  1.384615384615385 1 0  1.461538461538462 1 0  1.538461538461538 1 0  1.615384615384615 1 0  1.692307692307692 1 0  1.769230769230769 1 0  1.846153846153846 1 0  1.923076923076923 1 0  2 1 0  2.076923076923077 1 0  2.153846153846154 1 0  2.230769230769231 1 0  2.307692307692307 1 0  2.384615384615385 1 0  2.461538461538462 1 0  2.538461538461538 1 0  2.615384615384615 1 0  2.692307692307693 1 0  2.769230769230769 1 0  2.846153846153846 1 0  2.923076923076923 1 0  3 1 0  1 1.0625 0  1.076923076923077 1.0625 0  1.153846153846154 1.0625 0  1.230769230769231 1.0625 0  1.307692307692308 1.0625 0  1.384615384615385 1.0625 0  1.461538461538462 1.0625 0  1.538461538461538 1.0625 0  1.615384615384615 1.0625 0  1.692307692307692 1.0625 0  1.769230769230769 1.0625 0  1.846153846153846 1.0625 0  1.923076923076923 1.0625 0  2 1.0625 0  2.076923076923077 1.0625 0  2.153846153846154 1.0625 0  2.230769230769231 1.0625 0  2.307692307692307 1.0625 0  2.384615384615385 1.0625 0  2.461538461538462 1.0625 0  2.538461538461538 1.0625 0  2.615384615384615 1.0625 0  2.692307692307693 1.0625 0  2.769230769230769 1.0625 0  2.846153846153846 1.0625 0  2.923076923076923 1.0625 0  3 1.0625 0  1 1.125 0  1.076923076923077 1.125 0  1.153846153846154 1.125 0  1.230769230769231 1.125 0  1.307692307692308 1.125 0  1.384615384615385 1.125 0  1.461538461538462 1.125 0  1.538461538461538 1.125 0  1.615384615384615 1.125 0  1.692307692307692 1.125 0  1.769230769230769 1.125 0  1.846153846153846 1.125 0  1.923076923076923 1.125 0  2 1.125 0  2.076923076923077 1.125 0  2.153846153846154 1.125 0  2.230769230769231 1.125 0  2.307692307692307 1.125 0  2.384615384615385 1.125 0  2.461538461538462 1.125 0  2.538461538461538 1.125 0  2.615384615384615 1.125 0  2.692307692307693 1.125 0  2.769230769230769 1.125 0  2.846153846153846 1.125 0  2.923076923076923 1.125 0  3 1.125 0  1 1.1875 0  1.076923076923077 1.1875 0  1.153846153846154 1.1875 0  1.230769230769231 1.1875 0  1.307692307692308 1.1875 0  1.384615384615385 1.1875 0  1.461538461538462 1.1875 0  1.538461538461538 1.1875 0  1.615384615384615 1.1875 0  1.692307692307692 1.1875 0  1.769230769230769 1.1875 0  1.846153846153846 1.1875 0  1.923076923076923 1.1875 0  2 1.1875 0  2.076923076923077 1.1875 0  2.153846153846154 1.1875 0  2.230769230769231 1.1875 0  2.307692307692307 1.1875 0  2.384615384615385 1.1875 0  2.461538461538462 1.1875 0  2.538461538461538 1.1875 0  2.615384615384615 1.1875 0  2.692307692307693 1.1875 0  2.769230769230769 1.1875 0  2.846153846153846 1.1875 0  2.923076923076923 1.1875 0  3 1.1875 0  1 1.25 0  1.076923076923077 1.25 0  1.153846153846154 1.25 0  1.230769230769231 1.25 0  1.307692307692308 1.25 0  1.384615384615385 1.25 0  1.461538461538462 1.25 0  1.538461538461538 1.25 0  1.615384615384615 1.25 0  1.692307692307692 1.25 0  1.769230769230769 1.25 0  1.846153846153846 1.25 0  1.923076923076923 1.25 0  2 1.25 0  2.076923076923077 1.25 0  2.153846153846154 1.25 0  2.230769230769231 1.25 0  2.307692307692307 1.25 0  2.384615384615385 1.25 0  2.461538461538462 1.25 0  2.538461538461538 1.25 0  2.615384615384615 1.25 0  2.692307692307693 1.25 0  2.769230769230769 1.25 0  2.846153846153846 1.25 0  2.923076923076923 1.25 0  3 1.25 0  </DataArray>
</Points>
<Cells>
<DataArray  type="UInt32"  Name="connectivity"  format="ascii">0 1 28  0 27 28  1 2 29  1 28 29  2 3 30  2 29 30  3 4 31  3 30 31  4 5 32  4 31 32  5 6 33  5 32 33  6 7 34  6 33 34  7 8 35  7 34 35  8 9 36  8 35 36  9 10 37  9 36 37  10 11 38  10 37 38  11 12 39  11 38 39  12 13 40  12 39 40  13 14 41  13 40 41  14 15 42  14 41 42  15 16 43  15 42 43  16 17 44  16 43 44  17 18 45  17 44 45  18 19 46  18 45 46  19 20 47  19 46 47  20 21 48  20 47 48  21 22 49  21 48 49  22 23 50  22 49 50  23 24 51  23 50 51  24 25 52  24 51 52  25 26 53  25 52 53  27 28 55  27 54 55  28 29 56  28 55 56  29 30 57  29 56 57  30 31 58  30 57 58  31 32 59  31 58 59  32 33 60  32 59 60  33 34 61  33 60 61  34 35 62  34 61 62  35 36 63  35 62 63  36 37 64  36 63 64  37 38 65  37 64 65  38 39 66  38 65 66  39 40 67  39 66 67  40 41 68  40 67 68  41 42 69  41 68 69  42 43 70  42 69 70  43 44 71  43 70 71  44 45 72  44 71 72  45 46 73  45 72 73  46 47 74  46 73 74  47 48 75  47 74 75  48 49 76  48 75 76  49 50 77  49 76 77  50 51 78  50 77 78  51 52 79  51 78 79  52 53 80  52 79 80  54 55 82  54 81 82  55 56 83  55 82 83  56 57 84  56 83 84  57 58 85  57 84 85  58 59 86  58 85 86  59 60 87  59 86 87  60 61 88  60 87 88  61 62 89  61 88 89  62 63 90  62 89 90  63 64 91  63 90 91  64 65 92  64 91 92  65 66 93  65 92 93  66 67 94  66 93 94  67 68 95  67 94 95  68 69 96  68 95 96  69 70 97  69 96 97  70 71 98  70 97 98  71 72 99  71 98 99  72 73 100  72 99 100  73 74 101  73 100 101  74 75 102  74 101 102  75 76 103  75 102 103  76 77 104  76 103 104  77 78 105  77 104 105  78 79 106  78 105 106  79 80 107  79 106 107  81 82 109  81 108 109  82 83 110  82 109 110  83 84 111  83 110 111  84 85 112  84 111 112  85 86 113  85 112 113  86 87 114  86 113 114  87 88 115  87 114 115  88 89 116  88 115 116  89 90 117  89 116 117  90 91 118  90 117 118  91 92 119  91 118 119  92 93 120  92 119 120  93 94 121  93 120 121  94 95 122  94 121 122  95 96 123  95 122 123  96 97 124  96 123 124  97 98 125  97 124 125  98 99 126  98 125 126  99 100 127  99 126 127  100 101 128  100 127 128  101 102 129  101 128 129  102 103 130  102 129 130  103 104 131  103 130 131  104 105 132  104 131 132  105 106 133  105 132 133  106 107 134  106 133 134  </DataArray>
<DataArray  type="UInt32"  Name="offsets"  format="ascii">3 6 9 12 15 18 21 24 27 30 33 36 39 42 45 48 51 54 57 60 63 66 69 72 75 78 81 84 87 90 93 96 99 102 105 108 111 114 117 120 123 126 129 132 135 138 141 144 147 150 153 156 159 162 165 168 171 174 177 180 183 186 189 192 195 198 201 204 207 210 213 216 219 222 225 228 231 234 237 240 243 246 249 252 255 258 261 264 267 270 273 276 279 282 285 288 291 294 297 300 303 306 309 312 315 318 321 324 327 330 333 336 339 342 345 348 351 354 357 360 363 366 369 372 375 378 381 384 387 390 393 396 399 402 405 408 411 414 417 420 423 426 429 432 435 438 441 444 447 450 453 456 459 462 465 468 471 474 477 480 483 486 489 492 495 498 501 504 507 510 513 516 519 522 525 528 531 534 537 540 543 546 549 552 555 558 561 564 567 570 573 576 579 582 585 588 591 594 597 600 603 606 609 612 615 618 621 624 </DataArray>
<DataArray  type="UInt8"  Name="types"  format="ascii">5 5 5 5 5 5 5 5 5 5 5 5 5 5 5 5 5 5 5 5 5 5 5 5 5 5 5 5 5 5 5 5 5 5 5 5 5 5 5 5 5 5 5 5 5 5 5 5 5 5 5 5 5 5 5 5 5 5 5 5 5 5 5 5 5 5 5 5 5 5 5 5 5 5 5 5 5 5 5 5 5 5 5 5 5 5 5 5 5 5 5 5 5 5 5 5 5 5 5 5 5 5 5 5 5 5 5 5 5 5 5 5 5 5 5 5 5 5 5 5 5 5 5 5 5 5 5 5 5 5 5 5 5 5 5 5 5 5 5 5 5 5 5 5 5 5 5 5 5 5 5 5 5 5 5 5 5 5 5 5 5 5 5 5 5 5 5 5 5 5 5 5 5 5 5 5 5 5 5 5 5 5 5 5 5 5 5 5 5 5 5 5 5 5 5 5 5 5 5 5 5 5 5 5 5 5 5 5 </DataArray>
</Cells>
<PointData  Vectors="Displacement"> 
<DataArray  type="Float64"  Name="Displacement"  NumberOfComponents="3" format="ascii">6.4167916232366377e-04 1.5570736455916423e-04 0.0000000000000000e+00  6.8721841762998503e-04 6.4409419097430628e-05 0.0000000000000000e+00  6.9734552144540198e-04 1.1665409751469583e-04 0.0000000000000000e+00  6.8746583148127040e-04 1.5979326635644019e-04 0.0000000000000000e+00  6.7441404235128125e-04 1.9532578352852986e-04 0.0000000000000000e+00  6.6178038288323808e-04 2.2377121517422682e-04 0.0000000000000000e+00  6.4749262847369436e-04 2.4207124423869864e-04 0.0000000000000000e+00  6.3417376832473882e-04 2.5644968987248185e-04 0.0000000000000000e+00  6.1902002374621221e-04 2.6342049971922726e-04 0.0000000000000000e+00  6.0664553224548396e-04 2.6121102238057696e-04 0.0000000000000000e+00  5.9860430381580734e-04 2.6016026407505550e-04 0.0000000000000000e+00  5.8956297826652298e-04 2.5437621885758533e-04 0.0000000000000000e+00  5.8222912294361067e-04 2.4701303472815788e-04 0.0000000000000000e+00  5.7560105633936982e-04 2.3715292511815024e-04 0.0000000000000000e+00  5.7044551338057150e-04 2.3463138361437013e-04 0.0000000000000000e+00  5.6258512674468820e-04 2.2611200222779704e-04 0.0000000000000000e+00  5.5807188435327783e-04 2.1551069219349472e-04 0.0000000000000000e+00  5.5414874056571343e-04 2.0549798101452354e-04 0.0000000000000000e+00  5.5229964728655912e-04 1.9821121614335644e-04 0.0000000000000000e+00  5.5110686422976966e-04 1.9267984485623615e-04 0.0000000000000000e+00  5.5271314527126315e-04 1.9018237448352072e-04 0.0000000000000000e+00  5.5396005999108918e-04 1.9233456238430618e-04 0.0000000000000000e+00  5.5491355383970162e-04 1.9521476866149411e-04 0.0000000000000000e+00  5.5591848620824790e-04 1.9875814254556343e-04 0.0000000000000000e+00  5.5926710974171020e-04 2.0357565350349814e-04 0.0000000000000000e+00  5.6568668200472345e-04 2.0451750394124868e-04 0.0000000000000000e+00  5.8603543902142994e-04 2.6782947881200402e-04 0.0000000000000000e+00  6.7542884327007947e-04 5.8222952873821676e-05 0.0000000000000000e+00  6.7521638829642482e-04 6.9372892036007207e-05 0.0000000000000000e+00  6.6405673506475396e-04 1.1815730063958777e-04 0.0000000000000000e+00  6.5627073866454297e-04 1.6366257578947715e-04 0.0000000000000000e+00  6.4854099420807922e-04 1.9932912122116856e-04 0.0000000000000000e+00  6.4051163386570934e-04 2.2864285630600691e-04 0.0000000000000000e+00  6.3276220385121741e-04 2.4801044652912797e-04 0.0000000000000000e+00  6.2367175988152957e-04 2.6214183913503156e-04 0.0000000000000000e+00  6.1446968025930047e-04 2.6993344690672206e-04 0.0000000000000000e+00  6.0705417015840201e-04 2.6656007330400566e-04 0.0000000000000000e+00  5.9964431898000233e-04 2.6419932920798429e-04 0.0000000000000000e+00  5.9471268635789701e-04 2.5926346786161878e-04 0.0000000000000000e+00  5.8758143297318725e-04 2.5149726253164111e-04 0.0000000000000000e+00  5.8186448329307675e-04 2.4259200156772877e-04 0.0000000000000000e+00  5.7575360887230493e-04 2.3809307437633440e-04 0.0000000000000000e+00  5.7307076451881356e-04 2.2964485550079383e-04 0.0000000000000000e+00  5.6734761522340613e-04 2.1914508158133686e-04 0.0000000000000000e+00  5.6316407923649009e-04 2.0784514997702392e-04 0.0000000000000000e+00  5.5973185427834354e-04 2.0111363301036260e-04 0.0000000000000000e+00  5.5675039844757274e-04 1.9372604015005404e-04 0.0000000000000000e+00  5.5411244833710816e-04 1.9098866116895933e-04 0.0000000000000000e+00  5.5342445099876151e-04 1.9332142488379220e-04 0.0000000000000000e+00  5.5400798689168417e-04 1.9508395560749651e-04 0.0000000000000000e+00  5.5525388145813480e-04 1.9847931008700444e-04 0.0000000000000000e+00  5.5612667818348202e-04 2.0317247401606083e-04 0.0000000000000000e+00  5.5237754203186617e-04 2.1336807493741721e-04 0.0000000000000000e+00  5.5264317204957664e-04 2.3983064815040310e-04 0.0000000000000000e+00  6.3883984082408352e-04 1.5541944757052012e-05 0.0000000000000000e+00  6.4462748645075559e-04 7.4172627878956436e-05 0.0000000000000000e+00  6.3469333114812214e-04 1.2290281283434850e-04 0.0000000000000000e+00  6.2778433590327594e-04 1.6640855652106718e-04 0.0000000000000000e+00  6.2403892284874636e-04 2.0278848389511649e-04 0.0000000000000000e+00  6.1922635606092961e-04 2.3120013448379404e-04 0.0000000000000000e+00  6.1611046230080474e-04 2.5058423981817702e-04 0.0000000000000000e+00  6.1226776352999183e-04 2.6500499140124132e-04 0.0000000000000000e+00  6.0833622699793554e-04 2.7236012789742239e-04 0.0000000000000000e+00  6.0576000709529159e-04 2.6909702343102713e-04 0.0000000000000000e+00  6.0013446836397998e-04 2.6778753023801448e-04 0.0000000000000000e+00  5.9636995124483520e-04 2.6242049769228173e-04 0.0000000000000000e+00  5.9198398898290103e-04 2.5424871148840313e-04 0.0000000000000000e+00  5.8848436228568280e-04 2.4584943033484070e-04 0.0000000000000000e+00  5.8384787205034564e-04 2.3910428990144993e-04 0.0000000000000000e+00  5.7969450167092752e-04 2.3101642545036538e-04 0.0000000000000000e+00  5.7604685967585099e-04 2.2213928226013244e-04 0.0000000000000000e+00  5.6923655716501658e-04 2.0991349468760432e-04 0.0000000000000000e+00  5.6500785902376159e-04 2.0281481897067258e-04 0.0000000000000000e+00  5.6083622018163876e-04 1.9523976411230754e-04 0.0000000000000000e+00  5.5627214724724913e-04 1.9360723883701185e-04 0.0000000000000000e+00  5.5372610950714027e-04 1.9325043025752523e-04 0.0000000000000000e+00  5.5227666047457009e-04 1.9382160501256725e-04 0.0000000000000000e+00  5.5180701430323587e-04 1.9737962796168932e-04 0.0000000000000000e+00  5.5064193495063117e-04 2.0525835729474844e-04 0.0000000000000000e+00  5.4592485535855182e-04 2.1708545526187819e-04 0.0000000000000000e+00  5.4546757834686779e-04 2.3013195052443413e-04 0.0000000000000000e+00  5.8769660677672670e-04 -2.3962567338092425e-05 0.0000000000000000e+00  5.9798297234107793e-04 7.1001297647969972e-05 0.0000000000000000e+00  5.9635704986166454e-04 1.2767497672246160e-04 0.0000000000000000e+00  5.9531435393065106e-04 1.6803672202539072e-04 0.0000000000000000e+00  5.9667859368835023e-04 2.0424975692371423e-04 0.0000000000000000e+00  5.9934575160701007e-04 2.3126234537300250e-04 0.0000000000000000e+00  6.0087266262323950e-04 2.5082468425197509e-04 0.0000000000000000e+00  6.0146003910277728e-04 2.6536543685737134e-04 0.0000000000000000e+00  6.0257138712516752e-04 2.7142534572411014e-04 0.0000000000000000e+00  6.0297693820634830e-04 2.7062740366873403e-04 0.0000000000000000e+00  6.0070098799856785e-04 2.7035511851360410e-04 0.0000000000000000e+00  6.0007262243331994e-04 2.6373776601498387e-04 0.0000000000000000e+00  5.9674064917461577e-04 2.5641335504117765e-04 0.0000000000000000e+00  5.9453878619194719e-04 2.4684412767552637e-04 0.0000000000000000e+00  5.9120488373488032e-04 2.4138902240934250e-04 0.0000000000000000e+00  5.8674109203573699e-04 2.3294027032982976e-04 0.0000000000000000e+00  5.8235410922210964e-04 2.2484483151688571e-04 0.0000000000000000e+00  5.7569636576374763e-04 2.1423296372923573e-04 0.0000000000000000e+00  5.6987968274083416e-04 2.0541418918025681e-04 0.0000000000000000e+00  5.6516953990543169e-04 1.9832011313969348e-04 0.0000000000000000e+00  5.5936615541175860e-04 1.9636465872505061e-04 0.0000000000000000e+00  5.5463956166364886e-04 1.9485007097803429e-04 0.0000000000000000e+00  5.5214238400987201e-04 1.9468682669787607e-04 0.0000000000000000e+00  5.4893332607768106e-04 1.9816090197634977e-04 0.0000000000000000e+00  5.4559484158105023e-04 2.0802361618796496e-04 0.0000000000000000e+00  5.4200948812603783e-04 2.2003735440286000e-04 0.0000000000000000e+00  5.4095310610049237e-04 2.3038008748071606e-04 0.0000000000000000e+00  4.6475083686386618e-04 -1.2032827135481332e-04 0.0000000000000000e+00  5.2792097769152537e-04 6.6315514823834176e-05 0.0000000000000000e+00  5.5324958775354041e-04 1.2541637497915883e-04 0.0000000000000000e+00  5.6324653426834115e-04 1.6670771227670185e-04 0.0000000000000000e+00  5.7070292361741050e-04 2.0134359477159017e-04 0.0000000000000000e+00  5.7987943538967846e-04 2.2804745241228311e-04 0.0000000000000000e+00  5.8700485408531389e-04 2.4915819041655012e-04 0.0000000000000000e+00  5.9260561842325538e-04 2.6389659219442827e-04 0.0000000000000000e+00  5.9820104086762843e-04 2.6952447681556836e-04 0.0000000000000000e+00  6.0125609105717817e-04 2.7101820885827783e-04 0.0000000000000000e+00  6.0228187682010120e-04 2.7076833695487438e-04 0.0000000000000000e+00  6.0346484153733933e-04 2.6449238830437803e-04 0.0000000000000000e+00  6.0435086948998655e-04 2.5861559356384463e-04 0.0000000000000000e+00  6.0054169389143401e-04 2.4901188534330864e-04 0.0000000000000000e+00  5.9630555371523576e-04 2.4422121027163889e-04 0.0000000000000000e+00  5.9270160027605375e-04 2.3590332876035274e-04 0.0000000000000000e+00  5.8776194132924818e-04 2.2730917961636481e-04 0.0000000000000000e+00  5.8429533632958634e-04 2.1877490094954625e-04 0.0000000000000000e+00  5.7625148743610250e-04 2.0838214365129332e-04 0.0000000000000000e+00  5.6825562852265692e-04 2.0198126949444261e-04 0.0000000000000000e+00  5.6090332213578351e-04 1.9983809698260259e-04 0.0000000000000000e+00  5.5599601527189758e-04 1.9668099747742883e-04 0.0000000000000000e+00  5.4987017391669132e-04 1.9699107024178947e-04 0.0000000000000000e+00  5.4326401962131066e-04 2.0069861929884411e-04 0.0000000000000000e+00  5.3745958770046902e-04 2.1020528688674451e-04 0.0000000000000000e+00  5.3489752946310812e-04 2.2139890478613640e-04 0.0000000000000000e+00  5.3427193919919011e-04 2.2984598832425404e-04 0.0000000000000000e+00  </DataArray> 
</PointData> 
</Piece>
</UnstructuredGrid>
</VTKFile>