<?xml version="1.0"?>
<VTKFile type="UnstructuredGrid"  version="0.1"  >
<UnstructuredGrid>
<Piece  NumberOfPoints="135" NumberOfCells="208">
<Points>
<DataArray  type="Float64"  NumberOfComponents="3"  format="ascii">1 1 0  1.076923076923077 1 0  1.153846153846154 1 0  1.230769230769231 1 0  1.307692307692308 1 0  1.384615384615385 1 0  1.461538461538462 1 0  1.538461538461538 1 0  1.615384615384615 1 0  1.692307692307692 1 0  1.769230769230769 1 0  1.846153846153846 1 0  1.923076923076923 1 0  2 1 0  2.076923076923077 1 0  2.153846153846154 1 0  2.230769230769231 1 0  2.307692307692307 1 0  2.384615384615385 1 0  2.461538461538462 1 0  2.538461538461538 1 0  2.615384615384615 1 0  2.692307692307693 1 0  2.769230769230769 1 0  2.846153846153846 1 0  2.923076923076923 1 0  3 1 0  1 1.0625 0  1.076923076923077 1.0625 0  1.153846153846154 1.0625 0  1.230769230769231 1.0625 0  1.307692307692308 1.0625 0  1.384615384615385 1.0625 0  1.461538461538462 1.0625 0  1.538461538461538 1.0625 0  1.615384615384615 1.0625 0  1.692307692307692 1.0625 0  1.769230769230769 1.0625 0  1.846153846153846 1.0625 0  1.923076923076923 1.0625 0  2 1.0625 0  2.076923076923077 1.0625 0  2.153846153846154 1.0625 0  2.230769230769231 1.0625 0  2.307692307692307 1.0625 0  2.384615384615385 1.0625 0  2.461538461538462 1.0625 0  2.538461538461538 1.0625 0  2.615384615384615 1.0625 0  2.692307692307693 1.0625 0  2.769230769230769 1.0625 0  2.846153846153846 1.0625 0  2.923076923076923 1.0625 0  3 1.0625 0  1 1.125 0  1.076923076923077 1.125 0  1.153846153846154 1.125 0  1.230769230769231 1.125 0  1.307692307692308 1.125 0  1.384615384615385 1.125 0  1.461538461538462 1.125 0  1.538461538461538 1.125 0  1.615384615384615 1.125 0  1.692307692307692 1.125 0  1.769230769230769 1.125 0  1.846153846153846 1.125 0  1.923076923076923 1.125 0  2 1.125 0  2.076923076923077 1.125 0  2.153846153846154 1.125 0  2.230769230769231 1.125 0  2.307692307692307 1.125 0  2.384615384615385 1.125 0  2.461538461538462 1.125 0  2.538461538461538 1.125 0  2.615384615384615 1.125 0  2.692307692307693 1.125 0  2.769230769230769 1.125 0  2.846153846153846 1.125 0  2.923076923076923 1.125 0  3 1.125 0  1 1.1875 0  1.076923076923077 1.1875 0  1.153846153846154 1.1875 0  1.230769230769231 1.1875 0  1.307692307692308 1.1875 0  1.384615384615385 1.1875 0  1.461538461538462 1.1875 0  1.538461538461538 1.1875 0  1.615384615384615 1.1875 0  1.692307692307692 1.1875 0  1.769230769230769 1.1875 0  1.846153846153846 1.1875 0  1.923076923076923 1.1875 0  2 1.1875 0  2.076923076923077 1.1875 0  2.153846153846154 1.1875 0  2.230769230769231 1.1875 0  2.307692307692307 1.1875 0  2.384615384615385 1.1875 0  2.461538461538462 1.1875 0  2.538461538461538 1.1875 0  2.615384615384615 1.1875 0  2.692307692307693 1.1875 0  2.769230769230769 1.1875 0  2.846153846153846 1.1875 0  2.923076923076923 1.1875 0  3 1.1875 0  1 1.25 0  1.076923076923077 1.25 0  1.153846153846154 1.25 0  1.230769230769231 1.25 0  1.307692307692308 1.25 0  1.384615384615385 1.25 0  1.461538461538462 1.25 0  1.538461538461538 1.25 0  1.615384615384615 1.25 0  1.692307692307692 1.25 0  1.769230769230769 1.25 0  1.846153846153846 1.25 0  1.923076923076923 1.25 0  2 1.25 0  2.076923076923077 1.25 0  2.153846153846154 1.25 0  2.230769230769231 1.25 0  2.307692307692307 1.25 0  2.384615384615385 1.25 0  2.461538461538462 1.25 0  2.538461538461538 1.25 0  2.615384615384615 1.25 0  2.692307692307693 1.25 0  2.769230769230769 1.25 0  2.846153846153846 1.25 0  2.923076923076923 1.25 0  3 1.25 0  </DataArray>
</Points>
<Cells>
<DataArray  type="UInt32"  Name="connectivity"  format="ascii">0 1 28  0 27 28  1 2 29  1 28 29  2 3 30  2 29 30  3 4 31  3 30 31  4 5 32  4 31 32  5 6 33  5 32 33  6 7 34  6 33 34  7 8 35  7 34 35  8 9 36  8 35 36  9 10 37  9 36 37  10 11 38  10 37 38  11 12 39  11 38 39  12 13 40  12 39 40  13 14 41  13 40 41  14 15 42  14 41 42  15 16 43  15 42 43  16 17 44  16 43 44  17 18 45  17 44 45  18 19 46  18 45 46  19 20 47  19 46 47  20 21 48  20 47 48  21 22 49  21 48 49  22 23 50  22 49 50  23 24 51  23 50 51  24 25 52  24 51 52  25 26 53  25 52 53  27 28 55  27 54 55  28 29 56  28 55 56  29 30 57  29 56 57  30 31 58  30 57 58  31 32 59  31 58 59  32 33 60  32 59 60  33 34 61  33 60 61  34 35 62  34 61 62  35 36 63  35 62 63  36 37 64  36 63 64  37 38 65  37 64 65  38 39 66  38 65 66  39 40 67  39 66 67  40 41 68  40 67 68  41 42 69  41 68 69  42 43 70  42 69 70  43 44 71  43 70 71  44 45 72  44 71 72  45 46 73  45 72 73  46 47 74  46 73 74  47 48 75  47 74 75  48 49 76  48 75 76  49 50 77  49 76 77  50 51 78  50 77 78  51 52 79  51 78 79  52 53 80  52 79 80  54 55 82  54 81 82  55 56 83  55 82 83  56 57 84  56 83 84  57 58 85  57 84 85  58 59 86  58 85 86  59 60 87  59 86 87  60 61 88  60 87 88  61 62 89  61 88 89  62 63 90  62 89 90  63 64 91  63 90 91  64 65 92  64 91 92  65 66 93  65 92 93  66 67 94  66 93 94  67 68 95  67 94 95  68 69 96  68 95 96  69 70 97  69 96 97  70 71 98  70 97 98  71 72 99  71 98 99  72 73 100  72 99 100  73 74 101  73 100 101  74 75 102  74 101 102  75 76 103  75 102 103  76 77 104  76 103 104  77 78 105  77 104 105  78 79 106  78 105 106  79 80 107  79 106 107  81 82 109  81 108 109  82 83 110  82 109 110  83 84 111  83 110 111  84 85 112  84 111 112  85 86 113  85 112 113  86 87 114  86 113 114  87 88 115  87 114 115  88 89 116  88 115 116  89 90 117  89 116 117  90 91 118  90 117 118  91 92 119  91 118 119  92 93 120  92 119 120  93 94 121  93 120 121  94 95 122  94 121 122  95 96 123  95 122 123  96 97 124  96 123 124  97 98 125  97 124 125  98 99 126  98 125 126  99 100 127  99 126 127  100 101 128  100 127 128  101 102 129  101 128 129  102 103 130  102 129 130  103 104 131  103 130 131  104 105 132  104 131 132  105 106 133  105 132 133  106 107 134  106 133 134  </DataArray>
<DataArray  type="UInt32"  Name="offsets"  format="ascii">3 6 9 12 15 18 21 24 27 30 33 36 39 42 45 48 51 54 57 60 63 66 69 72 75 78 81 84 87 90 93 96 99 102 105 108 111 114 117 120 123 126 129 132 135 138 141 144 147 150 153 156 159 162 165 168 171 174 177 180 183 186 189 192 195 198 201 204 207 210 213 216 219 222 225 228 231 234 237 240 243 246 249 252 255 258 261 264 267 270 273 276 279 282 285 288 291 294 297 300 303 306 309 312 315 318 321 324 327 330 333 336 339 342 345 348 351 354 357 360 363 366 369 372 375 378 381 384 387 390 393 396 399 402 405 408 411 414 417 420 423 426 429 432 435 438 441 444 447 450 453 456 459 462 465 468 471 474 477 480 483 486 489 492 495 498 501 504 507 510 513 516 519 522 525 528 531 534 537 540 543 546 549 552 555 558 561 564 567 570 573 576 579 582 585 588 591 594 597 600 603 606 609 612 615 618 621 624 </DataArray>
<DataArray  type="UInt8"  Name="types"  format="ascii">5 5 5 5 5 5 5 5 5 5 5 5 5 5 5 5 5 5 5 5 5 5 5 5 5 5 5 5 5 5 5 5 5 5 5 5 5 5 5 5 5 5 5 5 5 5 5 5 5 5 5 5 5 5 5 5 5 5 5 5 5 5 5 5 5 5 5 5 5 5 5 5 5 5 5 5 5 5 5 5 5 5 5 5 5 5 5 5 5 5 5 5 5 5 5 5 5 5 5 5 5 5 5 5 5 5 5 5 5 5 5 5 5 5 5 5 5 5 5 5 5 5 5 5 5 5 5 5 5 5 5 5 5 5 5 5 5 5 5 5 5 5 5 5 5 5 5 5 5 5 5 5 5 5 5 5 5 5 5 5 5 5 5 5 5 5 5 5 5 5 5 5 5 5 5 5 5 5 5 5 5 5 5 5 5 5 5 5 5 5 5 5 5 5 5 5 5 5 5 5 5 5 5 5 5 5 5 5 </DataArray>
</Cells>
<PointData  Vectors="Displacement"> 
<DataArray  type="Float64"  Name="Displacement"  NumberOfComponents="3" format="ascii">9.6745949074979979e-05 1.1089116270734954e-04 0.0000000000000000e+00  1.1775824026387968e-04 2.8667459036736904e-05 0.0000000000000000e+00  1.2320163863923758e-04 4.5207763898373386e-05 0.0000000000000000e+00  1.1527384793401659e-04 6.5512926707650212e-05 0.0000000000000000e+00  9.9188634761324666e-05 8.0810659292267150e-05 0.0000000000000000e+00  8.3926908217411036e-05 8.6171088789431169e-05 0.0000000000000000e+00  7.5992509711989034e-05 9.5161492878283576e-05 0.0000000000000000e+00  6.6362594564396549e-05 8.7534281823443955e-05 0.0000000000000000e+00  6.0563879955705459e-05 7.8698945855964391e-05 0.0000000000000000e+00  4.5275883248093577e-05 7.3045680766791574e-05 0.0000000000000000e+00  3.2233618322377160e-05 7.1659433892004099e-05 0.0000000000000000e+00  2.1978563613453379e-05 6.9441242163950976e-05 0.0000000000000000e+00  1.7970869253786669e-05 6.9438936604996124e-05 0.0000000000000000e+00  1.4892954206610422e-05 6.8509588690910883e-05 0.0000000000000000e+00  1.1457981889406745e-05 6.7735005326488614e-05 0.0000000000000000e+00  9.0581811609174174e-06 6.6387493152248313e-05 0.0000000000000000e+00  7.9573985124831026e-06 6.6014369000016017e-05 0.0000000000000000e+00  8.7033070073059685e-06 6.1809302217226156e-05 0.0000000000000000e+00  8.3407208850673720e-06 5.7103380444728128e-05 0.0000000000000000e+00  7.8752445807080390e-06 5.2032471747494807e-05 0.0000000000000000e+00  6.7790531741354929e-06 4.5189015232537383e-05 0.0000000000000000e+00  5.4722006885588790e-06 3.7141670577051863e-05 0.0000000000000000e+00  4.7567697968986359e-06 3.9006836853543770e-05 0.0000000000000000e+00  1.7463291889658559e-06 4.1963153019691886e-05 0.0000000000000000e+00  2.1540387666178892e-06 3.8430800770071532e-05 0.0000000000000000e+00  7.2861168465533301e-06 3.8027649857084893e-05 0.0000000000000000e+00  2.2913424494487059e-05 5.8820403366292925e-05 0.0000000000000000e+00  1.2686757285440100e-04 4.2139194771081388e-05 0.0000000000000000e+00  1.2279902493150964e-04 3.2042665342672473e-05 0.0000000000000000e+00  1.1291305544594278e-04 4.7064629272522947e-05 0.0000000000000000e+00  9.9645528238973612e-05 6.9403508855261583e-05 0.0000000000000000e+00  8.9802465367298467e-05 8.5771644280126214e-05 0.0000000000000000e+00  7.7800641024758076e-05 9.2163394084795373e-05 0.0000000000000000e+00  7.2970900261918887e-05 9.3420018680954322e-05 0.0000000000000000e+00  7.2849224084280232e-05 9.0235313685832022e-05 0.0000000000000000e+00  6.2118353657496941e-05 8.3071833563066395e-05 0.0000000000000000e+00  4.9217689201897280e-05 7.8869078854082599e-05 0.0000000000000000e+00  3.5694779796542748e-05 7.4273135495655316e-05 0.0000000000000000e+00  2.6520850644788648e-05 6.9628197061659923e-05 0.0000000000000000e+00  2.0063164265084524e-05 6.8358532808963384e-05 0.0000000000000000e+00  1.4312874836512739e-05 6.5353920990608087e-05 0.0000000000000000e+00  1.1185945852380063e-05 6.3232299390109703e-05 0.0000000000000000e+00  1.1299122454669063e-05 6.1308703328736563e-05 0.0000000000000000e+00  1.0129163927452949e-05 5.9118131849328492e-05 0.0000000000000000e+00  1.0629526714654339e-05 5.5154700008620148e-05 0.0000000000000000e+00  1.0749216822257328e-05 5.0765262024488444e-05 0.0000000000000000e+00  1.0902205624153553e-05 4.5487598525849644e-05 0.0000000000000000e+00  1.0240178098456698e-05 3.8981609974701674e-05 0.0000000000000000e+00  6.1938293705172003e-06 3.3554261739652742e-05 0.0000000000000000e+00  1.7716870188801283e-06 3.4949552505340876e-05 0.0000000000000000e+00  1.1017400596810496e-06 3.6341758653716817e-05 0.0000000000000000e+00  1.4189594227921910e-06 3.1587561020979504e-05 0.0000000000000000e+00  3.2037756352577550e-06 3.1125644210053633e-05 0.0000000000000000e+00  6.6505771888476506e-06 3.8282653865036270e-05 0.0000000000000000e+00  1.1467414672512628e-04 1.9754933130533554e-05 0.0000000000000000e+00  1.1398980463466873e-04 3.5870688085853371e-05 0.0000000000000000e+00  1.0343107066941514e-04 5.2733770601468221e-05 0.0000000000000000e+00  9.1532503127124548e-05 7.7347034304407978e-05 0.0000000000000000e+00  8.0961151136394862e-05 9.0158567224941834e-05 0.0000000000000000e+00  7.4416220180353903e-05 9.5995435485155605e-05 0.0000000000000000e+00  7.2701402911878253e-05 9.1558760153678223e-05 0.0000000000000000e+00  7.0282007210565521e-05 9.3902438809027360e-05 0.0000000000000000e+00  6.1056278713452389e-05 9.0432032675040561e-05 0.0000000000000000e+00  5.2205931109069430e-05 8.2169137095904174e-05 0.0000000000000000e+00  4.2404080036761496e-05 7.7268151908190948e-05 0.0000000000000000e+00  3.1130694833918946e-05 7.3611154192731524e-05 0.0000000000000000e+00  2.3494545985675673e-05 6.9579177126015277e-05 0.0000000000000000e+00  1.8161741611638905e-05 6.5713983365049071e-05 0.0000000000000000e+00  1.5596794597939355e-05 6.2573342262829107e-05 0.0000000000000000e+00  1.5574317379701639e-05 5.9088707963412443e-05 0.0000000000000000e+00  1.3902388029224170e-05 5.5852230238592988e-05 0.0000000000000000e+00  1.5463691422972822e-05 5.2372551787978650e-05 0.0000000000000000e+00  1.5878412788712991e-05 4.8359679613015579e-05 0.0000000000000000e+00  1.5389489516363813e-05 4.4014291988534089e-05 0.0000000000000000e+00  1.3635026226481950e-05 3.9033621205500550e-05 0.0000000000000000e+00  8.7124793496117776e-06 3.6997263198833650e-05 0.0000000000000000e+00  2.4887170895891974e-06 3.5518757675638810e-05 0.0000000000000000e+00  3.5122514215227684e-07 3.3270049560433399e-05 0.0000000000000000e+00  -8.1971735488285876e-07 2.9230861156934770e-05 0.0000000000000000e+00  7.6488256092269260e-07 2.7283324186331771e-05 0.0000000000000000e+00  3.2604919066812614e-06 2.9540453900858385e-05 0.0000000000000000e+00  9.8974226629529533e-05 -5.1646776590395940e-07 0.0000000000000000e+00  9.5539338081998440e-05 3.5193126221175032e-05 0.0000000000000000e+00  8.8871569457565382e-05 6.0064111026352425e-05 0.0000000000000000e+00  8.0923351993682639e-05 8.3028247156343763e-05 0.0000000000000000e+00  7.7081477824855613e-05 9.6786358161172491e-05 0.0000000000000000e+00  7.3148516257341345e-05 9.9358231866010082e-05 0.0000000000000000e+00  7.0446085281321755e-05 9.6410817106078512e-05 0.0000000000000000e+00  6.5697847417978947e-05 9.8694765399800398e-05 0.0000000000000000e+00  6.0116432848243181e-05 9.8033297002250350e-05 0.0000000000000000e+00  5.4544216307121938e-05 8.6487802344239659e-05 0.0000000000000000e+00  4.5443750491065674e-05 8.4911121412527493e-05 0.0000000000000000e+00  3.6232713260671467e-05 7.9707473868025603e-05 0.0000000000000000e+00  3.0409624331660003e-05 7.4737498426664768e-05 0.0000000000000000e+00  2.4770750679577061e-05 7.0348900287419306e-05 0.0000000000000000e+00  1.9750456799961344e-05 6.5222715290253806e-05 0.0000000000000000e+00  1.9962375687649623e-05 6.0734015689215387e-05 0.0000000000000000e+00  1.8480248232853712e-05 5.5271610494234613e-05 0.0000000000000000e+00  1.9550557918914661e-05 5.2882739108859991e-05 0.0000000000000000e+00  2.0453051795223989e-05 4.9661767859456762e-05 0.0000000000000000e+00  1.9989573308363397e-05 4.6667785727746096e-05 0.0000000000000000e+00  1.5778146062596758e-05 4.3344736941882318e-05 0.0000000000000000e+00  1.0152216434965262e-05 4.3068732543660390e-05 0.0000000000000000e+00  4.2236141800374489e-06 4.0242685651058552e-05 0.0000000000000000e+00  -3.4148891653277031e-08 3.4774618710082858e-05 0.0000000000000000e+00  -1.5070169167498445e-06 2.8520285334859467e-05 0.0000000000000000e+00  -1.0108169125195641e-06 2.4391504225777699e-05 0.0000000000000000e+00  1.2081588819934500e-06 2.6845011376278738e-05 0.0000000000000000e+00  2.5469501365796569e-05 -6.7745414644154633e-05 0.0000000000000000e+00  6.0382848166969044e-05 3.6466260641789062e-05 0.0000000000000000e+00  6.5481857947095344e-05 6.2694148141234366e-05 0.0000000000000000e+00  6.5547975426819030e-05 8.5551564913794557e-05 0.0000000000000000e+00  6.8002793721327071e-05 9.9546147030049945e-05 0.0000000000000000e+00  6.9831493821868830e-05 1.0169256362247103e-04 0.0000000000000000e+00  7.0238420663849444e-05 1.0092412204563960e-04 0.0000000000000000e+00  6.3778637716237807e-05 1.0212329580756215e-04 0.0000000000000000e+00  6.3520093448654212e-05 1.0170360633905707e-04 0.0000000000000000e+00  5.6202164500735152e-05 9.0702778465742660e-05 0.0000000000000000e+00  4.7762040341394790e-05 8.9420049736306932e-05 0.0000000000000000e+00  4.2006929871850672e-05 8.3449557126278102e-05 0.0000000000000000e+00  3.3959385706487553e-05 8.0135267761995740e-05 0.0000000000000000e+00  3.1002415470507979e-05 7.4334565140409036e-05 0.0000000000000000e+00  2.6741655909064055e-05 6.8146683183284556e-05 0.0000000000000000e+00  2.4360231956821112e-05 6.2362050642033627e-05 0.0000000000000000e+00  2.1724263186095134e-05 5.5598303112842076e-05 0.0000000000000000e+00  2.3589486648778133e-05 5.3377771732897050e-05 0.0000000000000000e+00  2.2298630435513132e-05 5.0559748503517849e-05 0.0000000000000000e+00  2.1480259554839072e-05 4.9314102265559955e-05 0.0000000000000000e+00  1.6826090505339115e-05 4.8020333239862047e-05 0.0000000000000000e+00  1.1544323389730401e-05 4.7756313665584881e-05 0.0000000000000000e+00  8.1882725510723350e-06 4.4156656401705988e-05 0.0000000000000000e+00  5.1041036715941829e-06 3.7001908741803900e-05 0.0000000000000000e+00  2.7167635767776148e-06 2.9436836848416319e-05 0.0000000000000000e+00  4.2334145055112722e-07 2.4444815909917549e-05 0.0000000000000000e+00  -4.8692162625531187e-07 2.5199626588990861e-05 0.0000000000000000e+00  </DataArray> 
</PointData> 
</Piece>
</UnstructuredGrid>
</VTKFile>