<?xml version="1.0"?>
<VTKFile type="UnstructuredGrid"  version="0.1"  >
<UnstructuredGrid>
<Piece  NumberOfPoints="135" NumberOfCells="208">
<Points>
<DataArray  type="Float64"  NumberOfComponents="3"  format="ascii">1 1 0  1.076923076923077 1 0  1.153846153846154 1 0  1.230769230769231 1 0  1.307692307692308 1 0  1.384615384615385 1 0  1.461538461538462 1 0  1.538461538461538 1 0  1.615384615384615 1 0  1.692307692307692 1 0  1.769230769230769 1 0  1.846153846153846 1 0  1.923076923076923 1 0  2 1 0  2.076923076923077 1 0  2.153846153846154 1 0  2.230769230769231 1 0  2.307692307692307 1 0  2.384615384615385 1 0  2.461538461538462 1 0  2.538461538461538 1 0  2.615384615384615 1 0  2.692307692307693 1 0  2.769230769230769 1 0  2.846153846153846 1 0  2.923076923076923 1 0  3 1 0  1 1.0625 0  1.076923076923077 1.0625 0  1.153846153846154 1.0625 0  1.230769230769231 1.0625 0  1.307692307692308 1.0625 0  1.384615384615385 1.0625 0  1.461538461538462 1.0625 0  1.538461538461538 1.0625 0  1.615384615384615 1.0625 0  1.692307692307692 1.0625 0  1.769230769230769 1.0625 0  1.846153846153846 1.0625 0  1.923076923076923 1.0625 0  2 1.0625 0  2.076923076923077 1.0625 0  2.153846153846154 1.0625 0  2.230769230769231 1.0625 0  2.307692307692307 1.0625 0  2.384615384615385 1.0625 0  2.461538461538462 1.0625 0  2.538461538461538 1.0625 0  2.615384615384615 1.0625 0  2.692307692307693 1.0625 0  2.769230769230769 1.0625 0  2.846153846153846 1.0625 0  2.923076923076923 1.0625 0  3 1.0625 0  1 1.125 0  1.076923076923077 1.125 0  1.153846153846154 1.125 0  1.230769230769231 1.125 0  1.307692307692308 1.125 0  1.384615384615385 1.125 0  1.461538461538462 1.125 0  1.538461538461538 1.125 0  1.615384615384615 1.125 0  1.692307692307692 1.125 0  1.769230769230769 1.125 0  1.846153846153846 1.125 0  1.923076923076923 1.125 0  2 1.125 0  2.076923076923077 1.125 0  2.153846153846154 1.125 0  2.230769230769231 1.125 0  2.307692307692307 1.125 0  2.384615384615385 1.125 0  2.461538461538462 1.125 0  2.538461538461538 1.125 0  2.615384615384615 1.125 0  2.692307692307693 1.125 0  2.769230769230769 1.125 0  2.846153846153846 1.125 0  2.923076923076923 1.125 0  3 1.125 0  1 1.1875 0  1.076923076923077 1.1875 0  1.153846153846154 1.1875 0  1.230769230769231 1.1875 0  1.307692307692308 1.1875 0  1.384615384615385 1.1875 0  1.461538461538462 1.1875 0  1.538461538461538 1.1875 0  1.615384615384615 1.1875 0  1.692307692307692 1.1875 0  1.769230769230769 1.1875 0  1.846153846153846 1.1875 0  1.923076923076923 1.1875 0  2 1.1875 0  2.076923076923077 1.1875 0  2.153846153846154 1.1875 0  2.230769230769231 1.1875 0  2.307692307692307 1.1875 0  2.384615384615385 1.1875 0  2.461538461538462 1.1875 0  2.538461538461538 1.1875 0  2.615384615384615 1.1875 0  2.692307692307693 1.1875 0  2.769230769230769 1.1875 0  2.846153846153846 1.1875 0  2.923076923076923 1.1875 0  3 1.1875 0  1 1.25 0  1.076923076923077 1.25 0  1.153846153846154 1.25 0  1.230769230769231 1.25 0  1.307692307692308 1.25 0  1.384615384615385 1.25 0  1.461538461538462 1.25 0  1.538461538461538 1.25 0  1.615384615384615 1.25 0  1.692307692307692 1.25 0  1.769230769230769 1.25 0  1.846153846153846 1.25 0  1.923076923076923 1.25 0  2 1.25 0  2.076923076923077 1.25 0  2.153846153846154 1.25 0  2.230769230769231 1.25 0  2.307692307692307 1.25 0  2.384615384615385 1.25 0  2.461538461538462 1.25 0  2.538461538461538 1.25 0  2.615384615384615 1.25 0  2.692307692307693 1.25 0  2.769230769230769 1.25 0  2.846153846153846 1.25 0  2.923076923076923 1.25 0  3 1.25 0  </DataArray>
</Points>
<Cells>
<DataArray  type="UInt32"  Name="connectivity"  format="ascii">0 1 28  0 27 28  1 2 29  1 28 29  2 3 30  2 29 30  3 4 31  3 30 31  4 5 32  4 31 32  5 6 33  5 32 33  6 7 34  6 33 34  7 8 35  7 34 35  8 9 36  8 35 36  9 10 37  9 36 37  10 11 38  10 37 38  11 12 39  11 38 39  12 13 40  12 39 40  13 14 41  13 40 41  14 15 42  14 41 42  15 16 43  15 42 43  16 17 44  16 43 44  17 18 45  17 44 45  18 19 46  18 45 46  19 20 47  19 46 47  20 21 48  20 47 48  21 22 49  21 48 49  22 23 50  22 49 50  23 24 51  23 50 51  24 25 52  24 51 52  25 26 53  25 52 53  27 28 55  27 54 55  28 29 56  28 55 56  29 30 57  29 56 57  30 31 58  30 57 58  31 32 59  31 58 59  32 33 60  32 59 60  33 34 61  33 60 61  34 35 62  34 61 62  35 36 63  35 62 63  36 37 64  36 63 64  37 38 65  37 64 65  38 39 66  38 65 66  39 40 67  39 66 67  40 41 68  40 67 68  41 42 69  41 68 69  42 43 70  42 69 70  43 44 71  43 70 71  44 45 72  44 71 72  45 46 73  45 72 73  46 47 74  46 73 74  47 48 75  47 74 75  48 49 76  48 75 76  49 50 77  49 76 77  50 51 78  50 77 78  51 52 79  51 78 79  52 53 80  52 79 80  54 55 82  54 81 82  55 56 83  55 82 83  56 57 84  56 83 84  57 58 85  57 84 85  58 59 86  58 85 86  59 60 87  59 86 87  60 61 88  60 87 88  61 62 89  61 88 89  62 63 90  62 89 90  63 64 91  63 90 91  64 65 92  64 91 92  65 66 93  65 92 93  66 67 94  66 93 94  67 68 95  67 94 95  68 69 96  68 95 96  69 70 97  69 96 97  70 71 98  70 97 98  71 72 99  71 98 99  72 73 100  72 99 100  73 74 101  73 100 101  74 75 102  74 101 102  75 76 103  75 102 103  76 77 104  76 103 104  77 78 105  77 104 105  78 79 106  78 105 106  79 80 107  79 106 107  81 82 109  81 108 109  82 83 110  82 109 110  83 84 111  83 110 111  84 85 112  84 111 112  85 86 113  85 112 113  86 87 114  86 113 114  87 88 115  87 114 115  88 89 116  88 115 116  89 90 117  89 116 117  90 91 118  90 117 118  91 92 119  91 118 119  92 93 120  92 119 120  93 94 121  93 120 121  94 95 122  94 121 122  95 96 123  95 122 123  96 97 124  96 123 124  97 98 125  97 124 125  98 99 126  98 125 126  99 100 127  99 126 127  100 101 128  100 127 128  101 102 129  101 128 129  102 103 130  102 129 130  103 104 131  103 130 131  104 105 132  104 131 132  105 106 133  105 132 133  106 107 134  106 133 134  </DataArray>
<DataArray  type="UInt32"  Name="offsets"  format="ascii">3 6 9 12 15 18 21 24 27 30 33 36 39 42 45 48 51 54 57 60 63 66 69 72 75 78 81 84 87 90 93 96 99 102 105 108 111 114 117 120 123 126 129 132 135 138 141 144 147 150 153 156 159 162 165 168 171 174 177 180 183 186 189 192 195 198 201 204 207 210 213 216 219 222 225 228 231 234 237 240 243 246 249 252 255 258 261 264 267 270 273 276 279 282 285 288 291 294 297 300 303 306 309 312 315 318 321 324 327 330 333 336 339 342 345 348 351 354 357 360 363 366 369 372 375 378 381 384 387 390 393 396 399 402 405 408 411 414 417 420 423 426 429 432 435 438 441 444 447 450 453 456 459 462 465 468 471 474 477 480 483 486 489 492 495 498 501 504 507 510 513 516 519 522 525 528 531 534 537 540 543 546 549 552 555 558 561 564 567 570 573 576 579 582 585 588 591 594 597 600 603 606 609 612 615 618 621 624 </DataArray>
<DataArray  type="UInt8"  Name="types"  format="ascii">5 5 5 5 5 5 5 5 5 5 5 5 5 5 5 5 5 5 5 5 5 5 5 5 5 5 5 5 5 5 5 5 5 5 5 5 5 5 5 5 5 5 5 5 5 5 5 5 5 5 5 5 5 5 5 5 5 5 5 5 5 5 5 5 5 5 5 5 5 5 5 5 5 5 5 5 5 5 5 5 5 5 5 5 5 5 5 5 5 5 5 5 5 5 5 5 5 5 5 5 5 5 5 5 5 5 5 5 5 5 5 5 5 5 5 5 5 5 5 5 5 5 5 5 5 5 5 5 5 5 5 5 5 5 5 5 5 5 5 5 5 5 5 5 5 5 5 5 5 5 5 5 5 5 5 5 5 5 5 5 5 5 5 5 5 5 5 5 5 5 5 5 5 5 5 5 5 5 5 5 5 5 5 5 5 5 5 5 5 5 5 5 5 5 5 5 5 5 5 5 5 5 5 5 5 5 5 5 </DataArray>
</Cells>
<PointData  Vectors="Displacement"> 
<DataArray  type="Float64"  Name="Displacement"  NumberOfComponents="3" format="ascii">7.3901688782082865e-05 8.2152046873604155e-05 0.0000000000000000e+00  8.7142126929418473e-05 2.7696455460188269e-05 0.0000000000000000e+00  8.5650668301237410e-05 4.4546933840704211e-05 0.0000000000000000e+00  6.7369588506898553e-05 4.7059435506236418e-05 0.0000000000000000e+00  4.7051228673093076e-05 4.3824962909731496e-05 0.0000000000000000e+00  3.7388324998908409e-05 5.1626107650953219e-05 0.0000000000000000e+00  2.7150009259118577e-05 5.5595477232848643e-05 0.0000000000000000e+00  1.8986252985315369e-05 5.6190146036990032e-05 0.0000000000000000e+00  1.2249497382430333e-05 5.7108539079165411e-05 0.0000000000000000e+00  7.4499043669576703e-06 5.7725385058700779e-05 0.0000000000000000e+00  3.9622337205835738e-06 5.7049139226205389e-05 0.0000000000000000e+00  1.5235236598125043e-06 5.7952393478424590e-05 0.0000000000000000e+00  8.4557597493384449e-07 5.5717497815659241e-05 0.0000000000000000e+00  4.0764607928382040e-07 5.5051357505809175e-05 0.0000000000000000e+00  3.4132427239202248e-08 5.2664644353195498e-05 0.0000000000000000e+00  -8.6098448810660841e-08 5.1907627112646462e-05 0.0000000000000000e+00  -3.0529639278763243e-07 4.9537708611184890e-05 0.0000000000000000e+00  3.9195637424111571e-07 4.8867951664172716e-05 0.0000000000000000e+00  1.1804712649880450e-06 4.7381520748704221e-05 0.0000000000000000e+00  3.3706115641646695e-06 4.6664778515527122e-05 0.0000000000000000e+00  5.7838369231888881e-06 4.4098319080694921e-05 0.0000000000000000e+00  6.9479412536326451e-06 4.1536351257350521e-05 0.0000000000000000e+00  6.5954019305651027e-06 3.8563980254752705e-05 0.0000000000000000e+00  5.2150652562236891e-06 3.3671026315461498e-05 0.0000000000000000e+00  2.7989788504211731e-06 2.7055524778508230e-05 0.0000000000000000e+00  -4.1571408826781960e-07 2.0560496222615295e-05 0.0000000000000000e+00  -2.6799606520543577e-06 4.6719551300024455e-05 0.0000000000000000e+00  7.6751169843284006e-05 3.0116151108342816e-05 0.0000000000000000e+00  8.1758100481307450e-05 3.3201059978945160e-05 0.0000000000000000e+00  7.6508098280095250e-05 4.9701607734941091e-05 0.0000000000000000e+00  7.1732366635589832e-05 6.0801357359166601e-05 0.0000000000000000e+00  5.7894291982802464e-05 6.0802711281519813e-05 0.0000000000000000e+00  4.0055034242516336e-05 6.2723832352847741e-05 0.0000000000000000e+00  2.8014417233074675e-05 6.5162933089061892e-05 0.0000000000000000e+00  2.1623589018090121e-05 6.5828062973720226e-05 0.0000000000000000e+00  1.4819825988547020e-05 6.6109957854848904e-05 0.0000000000000000e+00  8.9152035507757731e-06 6.6959857343678778e-05 0.0000000000000000e+00  6.3407071676049107e-06 6.6383112621649126e-05 0.0000000000000000e+00  4.8881393227188794e-06 6.5573039794579026e-05 0.0000000000000000e+00  3.9104011941237089e-06 6.4217430093267897e-05 0.0000000000000000e+00  3.3512276527414809e-06 6.3022751920424464e-05 0.0000000000000000e+00  2.9458755810424006e-06 6.1436727526844744e-05 0.0000000000000000e+00  2.7020708718839338e-06 6.0024303954650376e-05 0.0000000000000000e+00  2.5281769635315955e-06 5.8407470694283150e-05 0.0000000000000000e+00  2.7885218859795984e-06 5.6925186577562090e-05 0.0000000000000000e+00  3.4107471111729139e-06 5.5341347809266296e-05 0.0000000000000000e+00  4.8810257821166882e-06 5.3721473973037145e-05 0.0000000000000000e+00  6.9055545496321286e-06 5.1328167420570755e-05 0.0000000000000000e+00  9.2818518398407271e-06 4.9268351490950369e-05 0.0000000000000000e+00  1.0106071509523378e-05 4.6712672209482924e-05 0.0000000000000000e+00  1.0945811436743186e-05 4.2939268689148516e-05 0.0000000000000000e+00  8.6194246471232324e-06 3.8243357522564220e-05 0.0000000000000000e+00  -1.5878309243300670e-07 3.9673162115419035e-05 0.0000000000000000e+00  -6.0892476310244358e-06 4.6166703822439984e-05 0.0000000000000000e+00  6.9784851945637485e-05 1.1933417850295259e-05 0.0000000000000000e+00  6.9450679036520664e-05 3.4270008753944085e-05 0.0000000000000000e+00  6.4107386354648904e-05 5.1319432997264489e-05 0.0000000000000000e+00  5.9823603764011591e-05 6.1941550759148732e-05 0.0000000000000000e+00  5.6616989750957382e-05 7.2123009580743792e-05 0.0000000000000000e+00  4.6058901437728788e-05 7.4507845537956569e-05 0.0000000000000000e+00  3.2109255953752740e-05 7.3361566360249787e-05 0.0000000000000000e+00  1.8384998719192970e-05 7.1022629900358488e-05 0.0000000000000000e+00  1.3104025581566345e-05 7.1501008667443979e-05 0.0000000000000000e+00  7.2698982913262927e-06 7.1788787456501262e-05 0.0000000000000000e+00  6.6750523577286081e-06 6.9800014108578972e-05 0.0000000000000000e+00  4.7503003215156989e-06 6.8977472138490061e-05 0.0000000000000000e+00  3.5736542156208953e-06 6.7549055298502390e-05 0.0000000000000000e+00  3.1402579945445424e-06 6.6331633790783797e-05 0.0000000000000000e+00  2.8972334823073430e-06 6.4856422841844767e-05 0.0000000000000000e+00  2.6177051541873067e-06 6.3430798862963635e-05 0.0000000000000000e+00  2.6455765204241010e-06 6.1898619952171382e-05 0.0000000000000000e+00  2.9025326636785777e-06 6.0131456132823824e-05 0.0000000000000000e+00  3.1688262461631976e-06 5.8456671714585874e-05 0.0000000000000000e+00  3.8056809556985251e-06 5.5968493099749153e-05 0.0000000000000000e+00  5.4018939587039998e-06 5.3485123746935510e-05 0.0000000000000000e+00  7.9228636030692578e-06 5.0921214845868820e-05 0.0000000000000000e+00  1.1726371520595557e-05 4.8517383299816044e-05 0.0000000000000000e+00  1.4163009538280294e-05 4.5121196197432823e-05 0.0000000000000000e+00  1.2011112609259319e-05 4.6702434079921822e-05 0.0000000000000000e+00  4.5372225505462204e-06 5.0518557198952376e-05 0.0000000000000000e+00  -7.4420838151527769e-07 4.7862191934542339e-05 0.0000000000000000e+00  6.6139051141294119e-05 -8.8509857843612059e-06 0.0000000000000000e+00  5.8879148049402365e-05 3.5319648816569737e-05 0.0000000000000000e+00  5.1187153372093830e-05 5.6133645543033003e-05 0.0000000000000000e+00  4.6615210405414981e-05 6.4919421632444500e-05 0.0000000000000000e+00  4.6986082845561053e-05 7.5585744349596976e-05 0.0000000000000000e+00  4.0035579344752319e-05 8.6938924453076712e-05 0.0000000000000000e+00  3.1180766379843568e-05 8.0926163521124868e-05 0.0000000000000000e+00  2.3535882534598445e-05 8.1374514675759921e-05 0.0000000000000000e+00  1.5532516680686235e-05 7.8585657140349495e-05 0.0000000000000000e+00  8.0942848907549475e-06 7.5049369646120278e-05 0.0000000000000000e+00  5.5115292741950088e-06 7.4629533597682837e-05 0.0000000000000000e+00  4.3513595933304960e-06 7.2616848932193474e-05 0.0000000000000000e+00  3.4440214173218683e-06 7.1404055574296544e-05 0.0000000000000000e+00  3.3092724903196806e-06 7.0087866702917654e-05 0.0000000000000000e+00  3.3392646416633482e-06 6.8758671086578162e-05 0.0000000000000000e+00  3.2200282628070317e-06 6.7264200052067724e-05 0.0000000000000000e+00  3.4397051738363865e-06 6.5622972151747913e-05 0.0000000000000000e+00  3.6849364213530615e-06 6.3716366267787527e-05 0.0000000000000000e+00  4.3739041902255174e-06 6.1296364307553868e-05 0.0000000000000000e+00  5.6692463320784664e-06 5.8650690244360179e-05 0.0000000000000000e+00  8.1520877909542083e-06 5.6013688964032865e-05 0.0000000000000000e+00  1.0400997914955180e-05 5.3154678150778154e-05 0.0000000000000000e+00  1.3396530480985950e-05 4.9603156140415294e-05 0.0000000000000000e+00  1.5600359107111526e-05 4.9177312440979095e-05 0.0000000000000000e+00  1.2778546079037143e-05 5.4483088468513711e-05 0.0000000000000000e+00  7.8699856016682766e-06 5.6724617056786351e-05 0.0000000000000000e+00  5.6829058109594664e-06 5.2562628848865188e-05 0.0000000000000000e+00  5.3898981626152508e-07 -6.5511391210640099e-05 0.0000000000000000e+00  2.6806913711287028e-05 3.7122096010589739e-05 0.0000000000000000e+00  3.4918889594131432e-05 5.7610213131478082e-05 0.0000000000000000e+00  3.8882528249030908e-05 6.9179204291884173e-05 0.0000000000000000e+00  3.3433343081405851e-05 7.8233381542273207e-05 0.0000000000000000e+00  3.4352738716191061e-05 9.3242483725539712e-05 0.0000000000000000e+00  3.2170702468624311e-05 8.5725414769638689e-05 0.0000000000000000e+00  2.5736490772994532e-05 8.7926806976133551e-05 0.0000000000000000e+00  1.8400915718032851e-05 8.2927417683713246e-05 0.0000000000000000e+00  1.0524020040196841e-05 8.0832329066853615e-05 0.0000000000000000e+00  6.2072667890364601e-06 7.7696819985082936e-05 0.0000000000000000e+00  4.6614664160928902e-06 7.4830208949372846e-05 0.0000000000000000e+00  3.7847548268493081e-06 7.3582310771886755e-05 0.0000000000000000e+00  3.9767177071451827e-06 7.1973651237630890e-05 0.0000000000000000e+00  4.0811094730347679e-06 7.0720186186088899e-05 0.0000000000000000e+00  4.1909858305366570e-06 6.9079703432938709e-05 0.0000000000000000e+00  4.5087734405235444e-06 6.7314772955102443e-05 0.0000000000000000e+00  5.2228769352468706e-06 6.5106044228432328e-05 0.0000000000000000e+00  6.6473050527154328e-06 6.2497657223357654e-05 0.0000000000000000e+00  8.8110869432718120e-06 5.9811695962922391e-05 0.0000000000000000e+00  1.1639554412918699e-05 5.6519279113752949e-05 0.0000000000000000e+00  1.3246313389062122e-05 5.3328915722320564e-05 0.0000000000000000e+00  1.4243567978705799e-05 5.1068144714230643e-05 0.0000000000000000e+00  1.3124874294653456e-05 5.2515804860854127e-05 0.0000000000000000e+00  9.5611468290135595e-06 5.8654048116326642e-05 0.0000000000000000e+00  1.1072177176227603e-05 5.9819383753706321e-05 0.0000000000000000e+00  1.3847239869377275e-05 5.2334077911619970e-05 0.0000000000000000e+00  </DataArray> 
</PointData> 
</Piece>
</UnstructuredGrid>
</VTKFile>