<?xml version="1.0"?>
<VTKFile type="UnstructuredGrid"  version="0.1"  >
<UnstructuredGrid>
<Piece  NumberOfPoints="135" NumberOfCells="208">
<Points>
<DataArray  type="Float64"  NumberOfComponents="3"  format="ascii">1 1 0  1.076923076923077 1 0  1.153846153846154 1 0  1.230769230769231 1 0  1.307692307692308 1 0  1.384615384615385 1 0  1.461538461538462 1 0  1.538461538461538 1 0  1.615384615384615 1 0  1.692307692307692 1 0  1.769230769230769 1 0  1.846153846153846 1 0  1.923076923076923 1 0  2 1 0  2.076923076923077 1 0  2.153846153846154 1 0  2.230769230769231 1 0  2.307692307692307 1 0  2.384615384615385 1 0  2.461538461538462 1 0  2.538461538461538 1 0  2.615384615384615 1 0  2.692307692307693 1 0  2.769230769230769 1 0  2.846153846153846 1 0  2.923076923076923 1 0  3 1 0  1 1.0625 0  1.076923076923077 1.0625 0  1.153846153846154 1.0625 0  1.230769230769231 1.0625 0  1.307692307692308 1.0625 0  1.384615384615385 1.0625 0  1.461538461538462 1.0625 0  1.538461538461538 1.0625 0  1.615384615384615 1.0625 0  1.692307692307692 1.0625 0  1.769230769230769 1.0625 0  1.846153846153846 1.0625 0  1.923076923076923 1.0625 0  2 1.0625 0  2.076923076923077 1.0625 0  2.153846153846154 1.0625 0  2.230769230769231 1.0625 0  2.307692307692307 1.0625 0  2.384615384615385 1.0625 0  2.461538461538462 1.0625 0  2.538461538461538 1.0625 0  2.615384615384615 1.0625 0  2.692307692307693 1.0625 0  2.769230769230769 1.0625 0  2.846153846153846 1.0625 0  2.923076923076923 1.0625 0  3 1.0625 0  1 1.125 0  1.076923076923077 1.125 0  1.153846153846154 1.125 0  1.230769230769231 1.125 0  1.307692307692308 1.125 0  1.384615384615385 1.125 0  1.461538461538462 1.125 0  1.538461538461538 1.125 0  1.615384615384615 1.125 0  1.692307692307692 1.125 0  1.769230769230769 1.125 0  1.846153846153846 1.125 0  1.923076923076923 1.125 0  2 1.125 0  2.076923076923077 1.125 0  2.153846153846154 1.125 0  2.230769230769231 1.125 0  2.307692307692307 1.125 0  2.384615384615385 1.125 0  2.461538461538462 1.125 0  2.538461538461538 1.125 0  2.615384615384615 1.125 0  2.692307692307693 1.125 0  2.769230769230769 1.125 0  2.846153846153846 1.125 0  2.923076923076923 1.125 0  3 1.125 0  1 1.1875 0  1.076923076923077 1.1875 0  1.153846153846154 1.1875 0  1.230769230769231 1.1875 0  1.307692307692308 1.1875 0  1.384615384615385 1.1875 0  1.461538461538462 1.1875 0  1.538461538461538 1.1875 0  1.615384615384615 1.1875 0  1.692307692307692 1.1875 0  1.769230769230769 1.1875 0  1.846153846153846 1.1875 0  1.923076923076923 1.1875 0  2 1.1875 0  2.076923076923077 1.1875 0  2.153846153846154 1.1875 0  2.230769230769231 1.1875 0  2.307692307692307 1.1875 0  2.384615384615385 1.1875 0  2.461538461538462 1.1875 0  2.538461538461538 1.1875 0  2.615384615384615 1.1875 0  2.692307692307693 1.1875 0  2.769230769230769 1.1875 0  2.846153846153846 1.1875 0  2.923076923076923 1.1875 0  3 1.1875 0  1 1.25 0  1.076923076923077 1.25 0  1.153846153846154 1.25 0  1.230769230769231 1.25 0  1.307692307692308 1.25 0  1.384615384615385 1.25 0  1.461538461538462 1.25 0  1.538461538461538 1.25 0  1.615384615384615 1.25 0  1.692307692307692 1.25 0  1.769230769230769 1.25 0  1.846153846153846 1.25 0  1.923076923076923 1.25 0  2 1.25 0  2.076923076923077 1.25 0  2.153846153846154 1.25 0  2.230769230769231 1.25 0  2.307692307692307 1.25 0  2.384615384615385 1.25 0  2.461538461538462 1.25 0  2.538461538461538 1.25 0  2.615384615384615 1.25 0  2.692307692307693 1.25 0  2.769230769230769 1.25 0  2.846153846153846 1.25 0  2.923076923076923 1.25 0  3 1.25 0  </DataArray>
</Points>
<Cells>
<DataArray  type="UInt32"  Name="connectivity"  format="ascii">0 1 28  0 27 28  1 2 29  1 28 29  2 3 30  2 29 30  3 4 31  3 30 31  4 5 32  4 31 32  5 6 33  5 32 33  6 7 34  6 33 34  7 8 35  7 34 35  8 9 36  8 35 36  9 10 37  9 36 37  10 11 38  10 37 38  11 12 39  11 38 39  12 13 40  12 39 40  13 14 41  13 40 41  14 15 42  14 41 42  15 16 43  15 42 43  16 17 44  16 43 44  17 18 45  17 44 45  18 19 46  18 45 46  19 20 47  19 46 47  20 21 48  20 47 48  21 22 49  21 48 49  22 23 50  22 49 50  23 24 51  23 50 51  24 25 52  24 51 52  25 26 53  25 52 53  27 28 55  27 54 55  28 29 56  28 55 56  29 30 57  29 56 57  30 31 58  30 57 58  31 32 59  31 58 59  32 33 60  32 59 60  33 34 61  33 60 61  34 35 62  34 61 62  35 36 63  35 62 63  36 37 64  36 63 64  37 38 65  37 64 65  38 39 66  38 65 66  39 40 67  39 66 67  40 41 68  40 67 68  41 42 69  41 68 69  42 43 70  42 69 70  43 44 71  43 70 71  44 45 72  44 71 72  45 46 73  45 72 73  46 47 74  46 73 74  47 48 75  47 74 75  48 49 76  48 75 76  49 50 77  49 76 77  50 51 78  50 77 78  51 52 79  51 78 79  52 53 80  52 79 80  54 55 82  54 81 82  55 56 83  55 82 83  56 57 84  56 83 84  57 58 85  57 84 85  58 59 86  58 85 86  59 60 87  59 86 87  60 61 88  60 87 88  61 62 89  61 88 89  62 63 90  62 89 90  63 64 91  63 90 91  64 65 92  64 91 92  65 66 93  65 92 93  66 67 94  66 93 94  67 68 95  67 94 95  68 69 96  68 95 96  69 70 97  69 96 97  70 71 98  70 97 98  71 72 99  71 98 99  72 73 100  72 99 100  73 74 101  73 100 101  74 75 102  74 101 102  75 76 103  75 102 103  76 77 104  76 103 104  77 78 105  77 104 105  78 79 106  78 105 106  79 80 107  79 106 107  81 82 109  81 108 109  82 83 110  82 109 110  83 84 111  83 110 111  84 85 112  84 111 112  85 86 113  85 112 113  86 87 114  86 113 114  87 88 115  87 114 115  88 89 116  88 115 116  89 90 117  89 116 117  90 91 118  90 117 118  91 92 119  91 118 119  92 93 120  92 119 120  93 94 121  93 120 121  94 95 122  94 121 122  95 96 123  95 122 123  96 97 124  96 123 124  97 98 125  97 124 125  98 99 126  98 125 126  99 100 127  99 126 127  100 101 128  100 127 128  101 102 129  101 128 129  102 103 130  102 129 130  103 104 131  103 130 131  104 105 132  104 131 132  105 106 133  105 132 133  106 107 134  106 133 134  </DataArray>
<DataArray  type="UInt32"  Name="offsets"  format="ascii">3 6 9 12 15 18 21 24 27 30 33 36 39 42 45 48 51 54 57 60 63 66 69 72 75 78 81 84 87 90 93 96 99 102 105 108 111 114 117 120 123 126 129 132 135 138 141 144 147 150 153 156 159 162 165 168 171 174 177 180 183 186 189 192 195 198 201 204 207 210 213 216 219 222 225 228 231 234 237 240 243 246 249 252 255 258 261 264 267 270 273 276 279 282 285 288 291 294 297 300 303 306 309 312 315 318 321 324 327 330 333 336 339 342 345 348 351 354 357 360 363 366 369 372 375 378 381 384 387 390 393 396 399 402 405 408 411 414 417 420 423 426 429 432 435 438 441 444 447 450 453 456 459 462 465 468 471 474 477 480 483 486 489 492 495 498 501 504 507 510 513 516 519 522 525 528 531 534 537 540 543 546 549 552 555 558 561 564 567 570 573 576 579 582 585 588 591 594 597 600 603 606 609 612 615 618 621 624 </DataArray>
<DataArray  type="UInt8"  Name="types"  format="ascii">5 5 5 5 5 5 5 5 5 5 5 5 5 5 5 5 5 5 5 5 5 5 5 5 5 5 5 5 5 5 5 5 5 5 5 5 5 5 5 5 5 5 5 5 5 5 5 5 5 5 5 5 5 5 5 5 5 5 5 5 5 5 5 5 5 5 5 5 5 5 5 5 5 5 5 5 5 5 5 5 5 5 5 5 5 5 5 5 5 5 5 5 5 5 5 5 5 5 5 5 5 5 5 5 5 5 5 5 5 5 5 5 5 5 5 5 5 5 5 5 5 5 5 5 5 5 5 5 5 5 5 5 5 5 5 5 5 5 5 5 5 5 5 5 5 5 5 5 5 5 5 5 5 5 5 5 5 5 5 5 5 5 5 5 5 5 5 5 5 5 5 5 5 5 5 5 5 5 5 5 5 5 5 5 5 5 5 5 5 5 5 5 5 5 5 5 5 5 5 5 5 5 5 5 5 5 5 5 </DataArray>
</Cells>
<PointData  Vectors="Displacement"> 
<DataArray  type="Float64"  Name="Displacement"  NumberOfComponents="3" format="ascii">9.5213884132294244e-05 1.2409905765472582e-04 0.0000000000000000e+00  1.2162371886411423e-04 3.5983687166573376e-05 0.0000000000000000e+00  1.2800498620860900e-04 5.5782812972288436e-05 0.0000000000000000e+00  1.2169030814106534e-04 6.8905895635610468e-05 0.0000000000000000e+00  1.0887504574304945e-04 8.3549758089559290e-05 0.0000000000000000e+00  9.3879099033435221e-05 9.4099472159423411e-05 0.0000000000000000e+00  7.9682049063286136e-05 9.6005179157780177e-05 0.0000000000000000e+00  6.8838767425231538e-05 1.0042577694711751e-04 0.0000000000000000e+00  6.2457249925566017e-05 9.5613657773882448e-05 0.0000000000000000e+00  5.8169970543959766e-05 8.4010694524114981e-05 0.0000000000000000e+00  5.2124629300730860e-05 7.5868259906250045e-05 0.0000000000000000e+00  4.2513795703677018e-05 6.9896387821551426e-05 0.0000000000000000e+00  3.1072182686023634e-05 7.0988007043366357e-05 0.0000000000000000e+00  2.4355358018187114e-05 7.1875033502349263e-05 0.0000000000000000e+00  1.9310439953199356e-05 6.7913015160225219e-05 0.0000000000000000e+00  1.5975100322786423e-05 6.6999336315660596e-05 0.0000000000000000e+00  1.2960548847901492e-05 6.4297171158492623e-05 0.0000000000000000e+00  1.0979414702308622e-05 6.0356583737734863e-05 0.0000000000000000e+00  8.3818695022495705e-06 5.7315475941517116e-05 0.0000000000000000e+00  6.0043863323148155e-06 4.9547431427500745e-05 0.0000000000000000e+00  5.3613437384647914e-06 4.3477538003378817e-05 0.0000000000000000e+00  4.5121505588358718e-06 4.5231880588971053e-05 0.0000000000000000e+00  1.9522231422093336e-06 4.6582389934655246e-05 0.0000000000000000e+00  2.3717478273742654e-06 4.2138436837176535e-05 0.0000000000000000e+00  7.1690217917425432e-06 3.9411243765148501e-05 0.0000000000000000e+00  1.5460219676088085e-05 3.4929349936570237e-05 0.0000000000000000e+00  3.0624511572602520e-05 5.7672045598847892e-05 0.0000000000000000e+00  1.3146183505399159e-04 5.2890853431294455e-05 0.0000000000000000e+00  1.2861808042036397e-04 4.0186425656672410e-05 0.0000000000000000e+00  1.1998020515491008e-04 5.5588423290814445e-05 0.0000000000000000e+00  1.1305473227170788e-04 7.2158097136160439e-05 0.0000000000000000e+00  1.0160840988131850e-04 9.0112161644882315e-05 0.0000000000000000e+00  8.9594391010353066e-05 1.0040375691138582e-04 0.0000000000000000e+00  7.8044321708109222e-05 1.0248664378805246e-04 0.0000000000000000e+00  7.0834344271352318e-05 1.0246559364260037e-04 0.0000000000000000e+00  7.1475212227622048e-05 9.7593766861249888e-05 0.0000000000000000e+00  6.3299648447793404e-05 8.6382337045941992e-05 0.0000000000000000e+00  5.7650760787989558e-05 8.2055984789250689e-05 0.0000000000000000e+00  4.4913847154323005e-05 7.6202041094370541e-05 0.0000000000000000e+00  3.6066134133501293e-05 7.3420553237088897e-05 0.0000000000000000e+00  2.7095520628747464e-05 7.0769285245849767e-05 0.0000000000000000e+00  2.2123336687304658e-05 6.7348004883996751e-05 0.0000000000000000e+00  1.9736587159313021e-05 6.4998554251023837e-05 0.0000000000000000e+00  1.6112479974876343e-05 6.2242712937651560e-05 0.0000000000000000e+00  1.5248736462075591e-05 5.7927915684597587e-05 0.0000000000000000e+00  1.3292206540479682e-05 5.3872785283034951e-05 0.0000000000000000e+00  1.0545891184513626e-05 4.7598257283596677e-05 0.0000000000000000e+00  6.4502162029121772e-06 4.1563800733208921e-05 0.0000000000000000e+00  1.9024310723498147e-06 4.2180367193716188e-05 0.0000000000000000e+00  2.2853987901927129e-06 4.2913522182247563e-05 0.0000000000000000e+00  3.5111373770303705e-06 3.6902219154688409e-05 0.0000000000000000e+00  7.4033223289830313e-06 3.2182566068056962e-05 0.0000000000000000e+00  1.1461062375028407e-05 3.0668781272981041e-05 0.0000000000000000e+00  1.4638067776750945e-05 4.0988648402778519e-05 0.0000000000000000e+00  1.2391003452236869e-04 2.7531727744556468e-05 0.0000000000000000e+00  1.2324739297903735e-04 4.2890930825441896e-05 0.0000000000000000e+00  1.1473478267250418e-04 5.6993527958662467e-05 0.0000000000000000e+00  1.0717267654091954e-04 7.4409804603240979e-05 0.0000000000000000e+00  9.8010427632484130e-05 9.4907540576341195e-05 0.0000000000000000e+00  8.8020312436421774e-05 1.0321206560866078e-04 0.0000000000000000e+00  7.9171899099804053e-05 1.0438562448838532e-04 0.0000000000000000e+00  7.4100506307866521e-05 9.8117013628638361e-05 0.0000000000000000e+00  7.3583774683578710e-05 9.5767471701847361e-05 0.0000000000000000e+00  6.4570524769360968e-05 9.0982749899651996e-05 0.0000000000000000e+00  5.7855915484445414e-05 8.4214734801599860e-05 0.0000000000000000e+00  4.9732975260516304e-05 7.8818066581629780e-05 0.0000000000000000e+00  4.3083667195583104e-05 7.3706110754829097e-05 0.0000000000000000e+00  3.2364916649964718e-05 7.0127853270985431e-05 0.0000000000000000e+00  2.7068548909717405e-05 6.6915747911094553e-05 0.0000000000000000e+00  2.3430740508947134e-05 6.2288571741461084e-05 0.0000000000000000e+00  2.1952888578679125e-05 5.9300845198136561e-05 0.0000000000000000e+00  2.0933930988846203e-05 5.4768430681371054e-05 0.0000000000000000e+00  1.7833487941407677e-05 5.0207809670874267e-05 0.0000000000000000e+00  1.3525657108692924e-05 4.5531268016914280e-05 0.0000000000000000e+00  8.4988853673894937e-06 4.2118440311679572e-05 0.0000000000000000e+00  1.9369146006975122e-06 3.9563437876439745e-05 0.0000000000000000e+00  5.7178740613584315e-07 3.7221308331282037e-05 0.0000000000000000e+00  2.6166934618357176e-06 3.1445487394847512e-05 0.0000000000000000e+00  5.8553361556533348e-06 2.6320472277480492e-05 0.0000000000000000e+00  8.4567855580623014e-06 2.7160763447838874e-05 0.0000000000000000e+00  1.0486263347456520e-05 3.4142829501872456e-05 0.0000000000000000e+00  1.1063508426240466e-04 4.6005362239792116e-06 0.0000000000000000e+00  1.0945247203352771e-04 4.2955736376107184e-05 0.0000000000000000e+00  1.0276825709428319e-04 6.1197598786726586e-05 0.0000000000000000e+00  9.5636156965864816e-05 7.6755670824754028e-05 0.0000000000000000e+00  9.0634055089739519e-05 9.6981766708648283e-05 0.0000000000000000e+00  8.4666329242225218e-05 1.0406606725320408e-04 0.0000000000000000e+00  8.1323194645854631e-05 1.0307400789718771e-04 0.0000000000000000e+00  7.9866739117041426e-05 9.6131099763769652e-05 0.0000000000000000e+00  7.3907213977997358e-05 9.8221524021399725e-05 0.0000000000000000e+00  6.5246420726828680e-05 9.5939789242197452e-05 0.0000000000000000e+00  6.1073177595060243e-05 8.4739913179548176e-05 0.0000000000000000e+00  5.3249905677346424e-05 8.2126771293982925e-05 0.0000000000000000e+00  4.5837259473133817e-05 7.4832405371036168e-05 0.0000000000000000e+00  3.7721165470169359e-05 7.0219599724603244e-05 0.0000000000000000e+00  3.3805751117714805e-05 6.6792607228498434e-05 0.0000000000000000e+00  3.0046300493615132e-05 6.0779620186437045e-05 0.0000000000000000e+00  2.6918170647830917e-05 5.7190861831907563e-05 0.0000000000000000e+00  2.4331922325869821e-05 5.3447388839620718e-05 0.0000000000000000e+00  2.0700014902039009e-05 4.9813678717542250e-05 0.0000000000000000e+00  1.4908989678113865e-05 4.4811709635598129e-05 0.0000000000000000e+00  1.0072448344444732e-05 4.3420339971832344e-05 0.0000000000000000e+00  3.7631051083014052e-06 3.8958403412182920e-05 0.0000000000000000e+00  1.3069389286698363e-06 3.3244553310496571e-05 0.0000000000000000e+00  1.9080200197904199e-06 2.7181687509306151e-05 0.0000000000000000e+00  3.4139256455512624e-06 2.1923010454629170e-05 0.0000000000000000e+00  3.7720830361371970e-06 2.4677920702569148e-05 0.0000000000000000e+00  3.9274316445430336e-06 3.3825506900972479e-05 0.0000000000000000e+00  3.9761049212514686e-05 -6.7846813654437799e-05 0.0000000000000000e+00  7.9594568643317543e-05 4.4222369758663125e-05 0.0000000000000000e+00  8.8534020451238633e-05 6.3288762389650022e-05 0.0000000000000000e+00  8.3925565081484365e-05 7.8898953870096343e-05 0.0000000000000000e+00  8.2621845092774589e-05 9.8531799909152339e-05 0.0000000000000000e+00  8.4375257253735476e-05 1.0480058547887850e-04 0.0000000000000000e+00  8.4424266321788912e-05 1.0194131001086799e-04 0.0000000000000000e+00  7.9446366371010608e-05 9.8438065024103230e-05 0.0000000000000000e+00  7.2202964392256317e-05 1.0075164396932372e-04 0.0000000000000000e+00  7.2681369653032363e-05 9.8453683797145169e-05 0.0000000000000000e+00  6.4606260591367994e-05 8.7801825012484919e-05 0.0000000000000000e+00  5.6637512230805725e-05 8.6839863863475599e-05 0.0000000000000000e+00  4.8003657635294732e-05 7.7980245801269010e-05 0.0000000000000000e+00  4.4932541157355773e-05 7.2415610462492111e-05 0.0000000000000000e+00  3.8340504263777973e-05 6.8267928631829354e-05 0.0000000000000000e+00  3.4805076594133423e-05 6.2152973963526187e-05 0.0000000000000000e+00  3.0654879327059851e-05 5.8514610409839979e-05 0.0000000000000000e+00  2.8029829768700014e-05 5.5086709471481415e-05 0.0000000000000000e+00  2.3272771600167755e-05 5.1533813254135356e-05 0.0000000000000000e+00  1.7653773414385550e-05 4.7836833361190339e-05 0.0000000000000000e+00  1.1601606495809827e-05 4.4980917960180287e-05 0.0000000000000000e+00  7.9810618747422229e-06 4.0593553842479327e-05 0.0000000000000000e+00  4.9252036685984534e-06 3.2824654753950151e-05 0.0000000000000000e+00  4.4428630704788111e-06 2.5748513420170678e-05 0.0000000000000000e+00  7.0521450445002366e-07 2.1592595943665651e-05 0.0000000000000000e+00  -2.0329189957035951e-06 2.5308727425461022e-05 0.0000000000000000e+00  -4.8038349709305911e-06 3.4108995926244068e-05 0.0000000000000000e+00  </DataArray> 
</PointData> 
</Piece>
</UnstructuredGrid>
</VTKFile>