<?xml version="1.0"?>
<VTKFile type="UnstructuredGrid"  version="0.1"  >
<UnstructuredGrid>
<Piece  NumberOfPoints="135" NumberOfCells="208">
<Points>
<DataArray  type="Float64"  NumberOfComponents="3"  format="ascii">1 1 0  1.076923076923077 1 0  1.153846153846154 1 0  1.230769230769231 1 0  1.307692307692308 1 0  1.384615384615385 1 0  1.461538461538462 1 0  1.538461538461538 1 0  1.615384615384615 1 0  1.692307692307692 1 0  1.769230769230769 1 0  1.846153846153846 1 0  1.923076923076923 1 0  2 1 0  2.076923076923077 1 0  2.153846153846154 1 0  2.230769230769231 1 0  2.307692307692307 1 0  2.384615384615385 1 0  2.461538461538462 1 0  2.538461538461538 1 0  2.615384615384615 1 0  2.692307692307693 1 0  2.769230769230769 1 0  2.846153846153846 1 0  2.923076923076923 1 0  3 1 0  1 1.0625 0  1.076923076923077 1.0625 0  1.153846153846154 1.0625 0  1.230769230769231 1.0625 0  1.307692307692308 1.0625 0  1.384615384615385 1.0625 0  1.461538461538462 1.0625 0  1.538461538461538 1.0625 0  1.615384615384615 1.0625 0  1.692307692307692 1.0625 0  1.769230769230769 1.0625 0  1.846153846153846 1.0625 0  1.923076923076923 1.0625 0  2 1.0625 0  2.076923076923077 1.0625 0  2.153846153846154 1.0625 0  2.230769230769231 1.0625 0  2.307692307692307 1.0625 0  2.384615384615385 1.0625 0  2.461538461538462 1.0625 0  2.538461538461538 1.0625 0  2.615384615384615 1.0625 0  2.692307692307693 1.0625 0  2.769230769230769 1.0625 0  2.846153846153846 1.0625 0  2.923076923076923 1.0625 0  3 1.0625 0  1 1.125 0  1.076923076923077 1.125 0  1.153846153846154 1.125 0  1.230769230769231 1.125 0  1.307692307692308 1.125 0  1.384615384615385 1.125 0  1.461538461538462 1.125 0  1.538461538461538 1.125 0  1.615384615384615 1.125 0  1.692307692307692 1.125 0  1.769230769230769 1.125 0  1.846153846153846 1.125 0  1.923076923076923 1.125 0  2 1.125 0  2.076923076923077 1.125 0  2.153846153846154 1.125 0  2.230769230769231 1.125 0  2.307692307692307 1.125 0  2.384615384615385 1.125 0  2.461538461538462 1.125 0  2.538461538461538 1.125 0  2.615384615384615 1.125 0  2.692307692307693 1.125 0  2.769230769230769 1.125 0  2.846153846153846 1.125 0  2.923076923076923 1.125 0  3 1.125 0  1 1.1875 0  1.076923076923077 1.1875 0  1.153846153846154 1.1875 0  1.230769230769231 1.1875 0  1.307692307692308 1.1875 0  1.384615384615385 1.1875 0  1.461538461538462 1.1875 0  1.538461538461538 1.1875 0  1.615384615384615 1.1875 0  1.692307692307692 1.1875 0  1.769230769230769 1.1875 0  1.846153846153846 1.1875 0  1.923076923076923 1.1875 0  2 1.1875 0  2.076923076923077 1.1875 0  2.153846153846154 1.1875 0  2.230769230769231 1.1875 0  2.307692307692307 1.1875 0  2.384615384615385 1.1875 0  2.461538461538462 1.1875 0  2.538461538461538 1.1875 0  2.615384615384615 1.1875 0  2.692307692307693 1.1875 0  2.769230769230769 1.1875 0  2.846153846153846 1.1875 0  2.923076923076923 1.1875 0  3 1.1875 0  1 1.25 0  1.076923076923077 1.25 0  1.153846153846154 1.25 0  1.230769230769231 1.25 0  1.307692307692308 1.25 0  1.384615384615385 1.25 0  1.461538461538462 1.25 0  1.538461538461538 1.25 0  1.615384615384615 1.25 0  1.692307692307692 1.25 0  1.769230769230769 1.25 0  1.846153846153846 1.25 0  1.923076923076923 1.25 0  2 1.25 0  2.076923076923077 1.25 0  2.153846153846154 1.25 0  2.230769230769231 1.25 0  2.307692307692307 1.25 0  2.384615384615385 1.25 0  2.461538461538462 1.25 0  2.538461538461538 1.25 0  2.615384615384615 1.25 0  2.692307692307693 1.25 0  2.769230769230769 1.25 0  2.846153846153846 1.25 0  2.923076923076923 1.25 0  3 1.25 0  </DataArray>
</Points>
<Cells>
<DataArray  type="UInt32"  Name="connectivity"  format="ascii">0 1 28  0 27 28  1 2 29  1 28 29  2 3 30  2 29 30  3 4 31  3 30 31  4 5 32  4 31 32  5 6 33  5 32 33  6 7 34  6 33 34  7 8 35  7 34 35  8 9 36  8 35 36  9 10 37  9 36 37  10 11 38  10 37 38  11 12 39  11 38 39  12 13 40  12 39 40  13 14 41  13 40 41  14 15 42  14 41 42  15 16 43  15 42 43  16 17 44  16 43 44  17 18 45  17 44 45  18 19 46  18 45 46  19 20 47  19 46 47  20 21 48  20 47 48  21 22 49  21 48 49  22 23 50  22 49 50  23 24 51  23 50 51  24 25 52  24 51 52  25 26 53  25 52 53  27 28 55  27 54 55  28 29 56  28 55 56  29 30 57  29 56 57  30 31 58  30 57 58  31 32 59  31 58 59  32 33 60  32 59 60  33 34 61  33 60 61  34 35 62  34 61 62  35 36 63  35 62 63  36 37 64  36 63 64  37 38 65  37 64 65  38 39 66  38 65 66  39 40 67  39 66 67  40 41 68  40 67 68  41 42 69  41 68 69  42 43 70  42 69 70  43 44 71  43 70 71  44 45 72  44 71 72  45 46 73  45 72 73  46 47 74  46 73 74  47 48 75  47 74 75  48 49 76  48 75 76  49 50 77  49 76 77  50 51 78  50 77 78  51 52 79  51 78 79  52 53 80  52 79 80  54 55 82  54 81 82  55 56 83  55 82 83  56 57 84  56 83 84  57 58 85  57 84 85  58 59 86  58 85 86  59 60 87  59 86 87  60 61 88  60 87 88  61 62 89  61 88 89  62 63 90  62 89 90  63 64 91  63 90 91  64 65 92  64 91 92  65 66 93  65 92 93  66 67 94  66 93 94  67 68 95  67 94 95  68 69 96  68 95 96  69 70 97  69 96 97  70 71 98  70 97 98  71 72 99  71 98 99  72 73 100  72 99 100  73 74 101  73 100 101  74 75 102  74 101 102  75 76 103  75 102 103  76 77 104  76 103 104  77 78 105  77 104 105  78 79 106  78 105 106  79 80 107  79 106 107  81 82 109  81 108 109  82 83 110  82 109 110  83 84 111  83 110 111  84 85 112  84 111 112  85 86 113  85 112 113  86 87 114  86 113 114  87 88 115  87 114 115  88 89 116  88 115 116  89 90 117  89 116 117  90 91 118  90 117 118  91 92 119  91 118 119  92 93 120  92 119 120  93 94 121  93 120 121  94 95 122  94 121 122  95 96 123  95 122 123  96 97 124  96 123 124  97 98 125  97 124 125  98 99 126  98 125 126  99 100 127  99 126 127  100 101 128  100 127 128  101 102 129  101 128 129  102 103 130  102 129 130  103 104 131  103 130 131  104 105 132  104 131 132  105 106 133  105 132 133  106 107 134  106 133 134  </DataArray>
<DataArray  type="UInt32"  Name="offsets"  format="ascii">3 6 9 12 15 18 21 24 27 30 33 36 39 42 45 48 51 54 57 60 63 66 69 72 75 78 81 84 87 90 93 96 99 102 105 108 111 114 117 120 123 126 129 132 135 138 141 144 147 150 153 156 159 162 165 168 171 174 177 180 183 186 189 192 195 198 201 204 207 210 213 216 219 222 225 228 231 234 237 240 243 246 249 252 255 258 261 264 267 270 273 276 279 282 285 288 291 294 297 300 303 306 309 312 315 318 321 324 327 330 333 336 339 342 345 348 351 354 357 360 363 366 369 372 375 378 381 384 387 390 393 396 399 402 405 408 411 414 417 420 423 426 429 432 435 438 441 444 447 450 453 456 459 462 465 468 471 474 477 480 483 486 489 492 495 498 501 504 507 510 513 516 519 522 525 528 531 534 537 540 543 546 549 552 555 558 561 564 567 570 573 576 579 582 585 588 591 594 597 600 603 606 609 612 615 618 621 624 </DataArray>
<DataArray  type="UInt8"  Name="types"  format="ascii">5 5 5 5 5 5 5 5 5 5 5 5 5 5 5 5 5 5 5 5 5 5 5 5 5 5 5 5 5 5 5 5 5 5 5 5 5 5 5 5 5 5 5 5 5 5 5 5 5 5 5 5 5 5 5 5 5 5 5 5 5 5 5 5 5 5 5 5 5 5 5 5 5 5 5 5 5 5 5 5 5 5 5 5 5 5 5 5 5 5 5 5 5 5 5 5 5 5 5 5 5 5 5 5 5 5 5 5 5 5 5 5 5 5 5 5 5 5 5 5 5 5 5 5 5 5 5 5 5 5 5 5 5 5 5 5 5 5 5 5 5 5 5 5 5 5 5 5 5 5 5 5 5 5 5 5 5 5 5 5 5 5 5 5 5 5 5 5 5 5 5 5 5 5 5 5 5 5 5 5 5 5 5 5 5 5 5 5 5 5 5 5 5 5 5 5 5 5 5 5 5 5 5 5 5 5 5 5 </DataArray>
</Cells>
<PointData  Vectors="Displacement"> 
<DataArray  type="Float64"  Name="Displacement"  NumberOfComponents="3" format="ascii">2.1934319312320251e-04 1.8314582978871662e-04 0.0000000000000000e+00  2.6553108192968521e-04 6.6885545088851586e-05 0.0000000000000000e+00  2.7883152644322663e-04 1.0193096922367932e-04 0.0000000000000000e+00  2.7191741488659762e-04 1.2750371928056266e-04 0.0000000000000000e+00  2.6042581719704484e-04 1.4669944538210950e-04 0.0000000000000000e+00  2.4944926497020941e-04 1.5861285029518827e-04 0.0000000000000000e+00  2.3987155422981120e-04 1.6595497729364689e-04 0.0000000000000000e+00  2.2924419595855307e-04 1.6910879372255557e-04 0.0000000000000000e+00  2.1886940829136226e-04 1.6517942382445155e-04 0.0000000000000000e+00  2.0837611057829018e-04 1.5945953293471592e-04 0.0000000000000000e+00  2.0046367282785288e-04 1.5177135511136572e-04 0.0000000000000000e+00  1.9350470113915262e-04 1.5018060056100921e-04 0.0000000000000000e+00  1.8463002672109284e-04 1.4880990344657210e-04 0.0000000000000000e+00  1.7533649233610098e-04 1.4228353791041718e-04 0.0000000000000000e+00  1.6831038621545319e-04 1.3256570072654253e-04 0.0000000000000000e+00  1.6460451347951693e-04 1.2734284746577793e-04 0.0000000000000000e+00  1.5805074239733414e-04 1.2189235375775687e-04 0.0000000000000000e+00  1.5897379113120696e-04 1.1344528502806594e-04 0.0000000000000000e+00  1.6175786361028016e-04 1.0588421956488967e-04 0.0000000000000000e+00  1.6486335382161609e-04 1.0084184759392433e-04 0.0000000000000000e+00  1.6580827929081913e-04 9.4638449535527479e-05 0.0000000000000000e+00  1.6639061334948514e-04 8.6053065965282821e-05 0.0000000000000000e+00  1.6909413444427944e-04 8.6716677892092965e-05 0.0000000000000000e+00  1.6699505789752903e-04 8.9430804974287154e-05 0.0000000000000000e+00  1.6969393055617720e-04 8.8267397096715618e-05 0.0000000000000000e+00  1.7715284697014249e-04 8.5825741150469826e-05 0.0000000000000000e+00  1.9526291631239356e-04 1.3474508763009095e-04 0.0000000000000000e+00  2.7243255409193756e-04 8.4953547499970841e-05 0.0000000000000000e+00  2.6979910239416187e-04 7.2534416078038079e-05 0.0000000000000000e+00  2.5961943710279287e-04 1.0284897162440634e-04 0.0000000000000000e+00  2.5290160973906602e-04 1.3090819055703267e-04 0.0000000000000000e+00  2.4672306641814856e-04 1.4975712823745896e-04 0.0000000000000000e+00  2.4039059296897464e-04 1.6190404986748098e-04 0.0000000000000000e+00  2.3393708185176973e-04 1.6983669821995731e-04 0.0000000000000000e+00  2.2801068882492636e-04 1.7221213700847413e-04 0.0000000000000000e+00  2.2062303871276024e-04 1.6970328976934870e-04 0.0000000000000000e+00  2.1211855346992543e-04 1.6395022741197860e-04 0.0000000000000000e+00  2.0279008806771439e-04 1.5588586193199366e-04 0.0000000000000000e+00  1.9485544224981857e-04 1.5505380851225391e-04 0.0000000000000000e+00  1.8824176095643566e-04 1.5343969221098992e-04 0.0000000000000000e+00  1.8253509084041104e-04 1.4586850403009374e-04 0.0000000000000000e+00  1.7751789515803301e-04 1.3623838912961694e-04 0.0000000000000000e+00  1.7046601871275241e-04 1.3098338688213336e-04 0.0000000000000000e+00  1.6522915898555419e-04 1.2300618137777987e-04 0.0000000000000000e+00  1.6550384837783197e-04 1.1167423782050307e-04 0.0000000000000000e+00  1.6603332164130948e-04 1.0419366903084082e-04 0.0000000000000000e+00  1.6954800775232311e-04 9.7289426122439861e-05 0.0000000000000000e+00  1.7284724308171291e-04 9.3437262713449268e-05 0.0000000000000000e+00  1.7348884408793804e-04 8.6316652473949508e-05 0.0000000000000000e+00  1.7031479917838381e-04 8.6497342707641774e-05 0.0000000000000000e+00  1.7000706401090247e-04 8.8988263391889214e-05 0.0000000000000000e+00  1.6991524011047599e-04 8.6585542671260588e-05 0.0000000000000000e+00  1.7099079979769177e-04 9.0965772616833474e-05 0.0000000000000000e+00  1.7122936616683479e-04 1.0904629362731662e-04 0.0000000000000000e+00  2.5325402201284360e-04 4.7006990693342958e-05 0.0000000000000000e+00  2.5633665588034588e-04 7.8239564571393739e-05 0.0000000000000000e+00  2.4478950160978797e-04 1.0865829414524592e-04 0.0000000000000000e+00  2.3657267262305545e-04 1.3364644741845890e-04 0.0000000000000000e+00  2.3439953016862121e-04 1.5218376906591253e-04 0.0000000000000000e+00  2.3129847541539179e-04 1.6354555930537797e-04 0.0000000000000000e+00  2.2962185994544426e-04 1.7129268738757191e-04 0.0000000000000000e+00  2.2541601198915379e-04 1.7370449119780382e-04 0.0000000000000000e+00  2.2085457951987573e-04 1.7351607485541554e-04 0.0000000000000000e+00  2.1421956674234262e-04 1.6844553489213067e-04 0.0000000000000000e+00  2.0454507841923919e-04 1.6252089016461203e-04 0.0000000000000000e+00  1.9664762284099651e-04 1.5898709202933603e-04 0.0000000000000000e+00  1.9167847302140398e-04 1.5448677163187088e-04 0.0000000000000000e+00  1.8893669160759008e-04 1.4737871587781849e-04 0.0000000000000000e+00  1.8404621822899379e-04 1.3982218770114708e-04 0.0000000000000000e+00  1.7669408495150259e-04 1.3516685318031788e-04 0.0000000000000000e+00  1.7181611244923987e-04 1.2394309074383224e-04 0.0000000000000000e+00  1.7124086769462594e-04 1.1205374495325920e-04 0.0000000000000000e+00  1.7312533218420928e-04 1.0196676883962535e-04 0.0000000000000000e+00  1.7373299332841923e-04 9.4038008768992365e-05 0.0000000000000000e+00  1.7447884153826509e-04 8.9850234684789060e-05 0.0000000000000000e+00  1.7509171051296877e-04 8.6688198100178969e-05 0.0000000000000000e+00  1.7178153722293110e-04 8.7344109090774536e-05 0.0000000000000000e+00  1.7260471851847034e-04 8.8950665288554302e-05 0.0000000000000000e+00  1.7097286026171408e-04 8.7464488953516647e-05 0.0000000000000000e+00  1.7020813369860146e-04 9.3286040572304279e-05 0.0000000000000000e+00  1.6910105390804280e-04 1.0232398501076794e-04 0.0000000000000000e+00  2.2077868270745663e-04 1.1489830817191434e-05 0.0000000000000000e+00  2.2579394447253630e-04 7.7583610663046421e-05 0.0000000000000000e+00  2.1963552826713230e-04 1.1467827871766515e-04 0.0000000000000000e+00  2.1899522817551401e-04 1.3660848628740073e-04 0.0000000000000000e+00  2.1953781100800536e-04 1.5234987390351195e-04 0.0000000000000000e+00  2.2140736776349280e-04 1.6353394588257620e-04 0.0000000000000000e+00  2.2278254433042672e-04 1.7133792958303566e-04 0.0000000000000000e+00  2.2241161097669317e-04 1.7612844218353318e-04 0.0000000000000000e+00  2.2051515964426451e-04 1.7614674704015900e-04 0.0000000000000000e+00  2.1699970303080927e-04 1.7290232958675565e-04 0.0000000000000000e+00  2.0900727851517860e-04 1.6878572883995987e-04 0.0000000000000000e+00  2.0115038428388386e-04 1.6260629448942360e-04 0.0000000000000000e+00  1.9692363302999149e-04 1.5487871390165240e-04 0.0000000000000000e+00  1.9302823105489837e-04 1.5000840608430234e-04 0.0000000000000000e+00  1.8773502407903297e-04 1.4446491082344322e-04 0.0000000000000000e+00  1.8271095707665051e-04 1.3880794817945546e-04 0.0000000000000000e+00  1.7988479206732793e-04 1.2644071511187804e-04 0.0000000000000000e+00  1.7826838824269196e-04 1.1048414654460652e-04 0.0000000000000000e+00  1.7972175508335127e-04 9.9672219113011322e-05 0.0000000000000000e+00  1.7947735933014557e-04 9.5555910263109953e-05 0.0000000000000000e+00  1.7584251543380545e-04 8.9745381670625676e-05 0.0000000000000000e+00  1.7713529703750311e-04 8.7332406226809999e-05 0.0000000000000000e+00  1.7521985632799373e-04 8.8189955730702429e-05 0.0000000000000000e+00  1.7520472336327299e-04 9.0649963195917115e-05 0.0000000000000000e+00  1.7037565929735925e-04 9.1896651199792660e-05 0.0000000000000000e+00  1.6702692333776044e-04 9.5840539729429380e-05 0.0000000000000000e+00  1.6820781411815646e-04 1.0124412345585593e-04 0.0000000000000000e+00  1.2039887873263392e-04 -8.1676057636099596e-05 0.0000000000000000e+00  1.7197248526787601e-04 7.5192684552457005e-05 0.0000000000000000e+00  1.9295965899350425e-04 1.1335752598600202e-04 0.0000000000000000e+00  2.0119927628532589e-04 1.3464070066957666e-04 0.0000000000000000e+00  2.0719796495699842e-04 1.5050177525346593e-04 0.0000000000000000e+00  2.1148533809307765e-04 1.6154046608440978e-04 0.0000000000000000e+00  2.1588064236261086e-04 1.6986526924828453e-04 0.0000000000000000e+00  2.1854189888598558e-04 1.7560722849673676e-04 0.0000000000000000e+00  2.2008875175954333e-04 1.7656960305450554e-04 0.0000000000000000e+00  2.1720221017547921e-04 1.7459967588718154e-04 0.0000000000000000e+00  2.1403886419371417e-04 1.7303013424263338e-04 0.0000000000000000e+00  2.0934020104642189e-04 1.6564188474767555e-04 0.0000000000000000e+00  2.0247697049047890e-04 1.5707747421899969e-04 0.0000000000000000e+00  1.9698555045524922e-04 1.5285355662973351e-04 0.0000000000000000e+00  1.9159920117085339e-04 1.4781052744165427e-04 0.0000000000000000e+00  1.8934739520790498e-04 1.4016636887939239e-04 0.0000000000000000e+00  1.9156373925237926e-04 1.2702016144581607e-04 0.0000000000000000e+00  1.8883245587298134e-04 1.1094826416952509e-04 0.0000000000000000e+00  1.8531820361461515e-04 9.9370086911342481e-05 0.0000000000000000e+00  1.8157305581991689e-04 9.6552048286523387e-05 0.0000000000000000e+00  1.8193570366396771e-04 8.9625243609479401e-05 0.0000000000000000e+00  1.7819171958602251e-04 8.6510731057513296e-05 0.0000000000000000e+00  1.7733603600643392e-04 8.9392517984615799e-05 0.0000000000000000e+00  1.7492173517469039e-04 9.2478677188626075e-05 0.0000000000000000e+00  1.6985962432238038e-04 9.6109886342713740e-05 0.0000000000000000e+00  1.6769886709166863e-04 9.4533703469692015e-05 0.0000000000000000e+00  1.6813264864137708e-04 1.0180869486699581e-04 0.0000000000000000e+00  </DataArray> 
</PointData> 
</Piece>
</UnstructuredGrid>
</VTKFile>