<?xml version="1.0"?>
<VTKFile type="UnstructuredGrid"  version="0.1"  >
<UnstructuredGrid>
<Piece  NumberOfPoints="135" NumberOfCells="208">
<Points>
<DataArray  type="Float64"  NumberOfComponents="3"  format="ascii">1 1 0  1.076923076923077 1 0  1.153846153846154 1 0  1.230769230769231 1 0  1.307692307692308 1 0  1.384615384615385 1 0  1.461538461538462 1 0  1.538461538461538 1 0  1.615384615384615 1 0  1.692307692307692 1 0  1.769230769230769 1 0  1.846153846153846 1 0  1.923076923076923 1 0  2 1 0  2.076923076923077 1 0  2.153846153846154 1 0  2.230769230769231 1 0  2.307692307692307 1 0  2.384615384615385 1 0  2.461538461538462 1 0  2.538461538461538 1 0  2.615384615384615 1 0  2.692307692307693 1 0  2.769230769230769 1 0  2.846153846153846 1 0  2.923076923076923 1 0  3 1 0  1 1.0625 0  1.076923076923077 1.0625 0  1.153846153846154 1.0625 0  1.230769230769231 1.0625 0  1.307692307692308 1.0625 0  1.384615384615385 1.0625 0  1.461538461538462 1.0625 0  1.538461538461538 1.0625 0  1.615384615384615 1.0625 0  1.692307692307692 1.0625 0  1.769230769230769 1.0625 0  1.846153846153846 1.0625 0  1.923076923076923 1.0625 0  2 1.0625 0  2.076923076923077 1.0625 0  2.153846153846154 1.0625 0  2.230769230769231 1.0625 0  2.307692307692307 1.0625 0  2.384615384615385 1.0625 0  2.461538461538462 1.0625 0  2.538461538461538 1.0625 0  2.615384615384615 1.0625 0  2.692307692307693 1.0625 0  2.769230769230769 1.0625 0  2.846153846153846 1.0625 0  2.923076923076923 1.0625 0  3 1.0625 0  1 1.125 0  1.076923076923077 1.125 0  1.153846153846154 1.125 0  1.230769230769231 1.125 0  1.307692307692308 1.125 0  1.384615384615385 1.125 0  1.461538461538462 1.125 0  1.538461538461538 1.125 0  1.615384615384615 1.125 0  1.692307692307692 1.125 0  1.769230769230769 1.125 0  1.846153846153846 1.125 0  1.923076923076923 1.125 0  2 1.125 0  2.076923076923077 1.125 0  2.153846153846154 1.125 0  2.230769230769231 1.125 0  2.307692307692307 1.125 0  2.384615384615385 1.125 0  2.461538461538462 1.125 0  2.538461538461538 1.125 0  2.615384615384615 1.125 0  2.692307692307693 1.125 0  2.769230769230769 1.125 0  2.846153846153846 1.125 0  2.923076923076923 1.125 0  3 1.125 0  1 1.1875 0  1.076923076923077 1.1875 0  1.153846153846154 1.1875 0  1.230769230769231 1.1875 0  1.307692307692308 1.1875 0  1.384615384615385 1.1875 0  1.461538461538462 1.1875 0  1.538461538461538 1.1875 0  1.615384615384615 1.1875 0  1.692307692307692 1.1875 0  1.769230769230769 1.1875 0  1.846153846153846 1.1875 0  1.923076923076923 1.1875 0  2 1.1875 0  2.076923076923077 1.1875 0  2.153846153846154 1.1875 0  2.230769230769231 1.1875 0  2.307692307692307 1.1875 0  2.384615384615385 1.1875 0  2.461538461538462 1.1875 0  2.538461538461538 1.1875 0  2.615384615384615 1.1875 0  2.692307692307693 1.1875 0  2.769230769230769 1.1875 0  2.846153846153846 1.1875 0  2.923076923076923 1.1875 0  3 1.1875 0  1 1.25 0  1.076923076923077 1.25 0  1.153846153846154 1.25 0  1.230769230769231 1.25 0  1.307692307692308 1.25 0  1.384615384615385 1.25 0  1.461538461538462 1.25 0  1.538461538461538 1.25 0  1.615384615384615 1.25 0  1.692307692307692 1.25 0  1.769230769230769 1.25 0  1.846153846153846 1.25 0  1.923076923076923 1.25 0  2 1.25 0  2.076923076923077 1.25 0  2.153846153846154 1.25 0  2.230769230769231 1.25 0  2.307692307692307 1.25 0  2.384615384615385 1.25 0  2.461538461538462 1.25 0  2.538461538461538 1.25 0  2.615384615384615 1.25 0  2.692307692307693 1.25 0  2.769230769230769 1.25 0  2.846153846153846 1.25 0  2.923076923076923 1.25 0  3 1.25 0  </DataArray>
</Points>
<Cells>
<DataArray  type="UInt32"  Name="connectivity"  format="ascii">0 1 28  0 27 28  1 2 29  1 28 29  2 3 30  2 29 30  3 4 31  3 30 31  4 5 32  4 31 32  5 6 33  5 32 33  6 7 34  6 33 34  7 8 35  7 34 35  8 9 36  8 35 36  9 10 37  9 36 37  10 11 38  10 37 38  11 12 39  11 38 39  12 13 40  12 39 40  13 14 41  13 40 41  14 15 42  14 41 42  15 16 43  15 42 43  16 17 44  16 43 44  17 18 45  17 44 45  18 19 46  18 45 46  19 20 47  19 46 47  20 21 48  20 47 48  21 22 49  21 48 49  22 23 50  22 49 50  23 24 51  23 50 51  24 25 52  24 51 52  25 26 53  25 52 53  27 28 55  27 54 55  28 29 56  28 55 56  29 30 57  29 56 57  30 31 58  30 57 58  31 32 59  31 58 59  32 33 60  32 59 60  33 34 61  33 60 61  34 35 62  34 61 62  35 36 63  35 62 63  36 37 64  36 63 64  37 38 65  37 64 65  38 39 66  38 65 66  39 40 67  39 66 67  40 41 68  40 67 68  41 42 69  41 68 69  42 43 70  42 69 70  43 44 71  43 70 71  44 45 72  44 71 72  45 46 73  45 72 73  46 47 74  46 73 74  47 48 75  47 74 75  48 49 76  48 75 76  49 50 77  49 76 77  50 51 78  50 77 78  51 52 79  51 78 79  52 53 80  52 79 80  54 55 82  54 81 82  55 56 83  55 82 83  56 57 84  56 83 84  57 58 85  57 84 85  58 59 86  58 85 86  59 60 87  59 86 87  60 61 88  60 87 88  61 62 89  61 88 89  62 63 90  62 89 90  63 64 91  63 90 91  64 65 92  64 91 92  65 66 93  65 92 93  66 67 94  66 93 94  67 68 95  67 94 95  68 69 96  68 95 96  69 70 97  69 96 97  70 71 98  70 97 98  71 72 99  71 98 99  72 73 100  72 99 100  73 74 101  73 100 101  74 75 102  74 101 102  75 76 103  75 102 103  76 77 104  76 103 104  77 78 105  77 104 105  78 79 106  78 105 106  79 80 107  79 106 107  81 82 109  81 108 109  82 83 110  82 109 110  83 84 111  83 110 111  84 85 112  84 111 112  85 86 113  85 112 113  86 87 114  86 113 114  87 88 115  87 114 115  88 89 116  88 115 116  89 90 117  89 116 117  90 91 118  90 117 118  91 92 119  91 118 119  92 93 120  92 119 120  93 94 121  93 120 121  94 95 122  94 121 122  95 96 123  95 122 123  96 97 124  96 123 124  97 98 125  97 124 125  98 99 126  98 125 126  99 100 127  99 126 127  100 101 128  100 127 128  101 102 129  101 128 129  102 103 130  102 129 130  103 104 131  103 130 131  104 105 132  104 131 132  105 106 133  105 132 133  106 107 134  106 133 134  </DataArray>
<DataArray  type="UInt32"  Name="offsets"  format="ascii">3 6 9 12 15 18 21 24 27 30 33 36 39 42 45 48 51 54 57 60 63 66 69 72 75 78 81 84 87 90 93 96 99 102 105 108 111 114 117 120 123 126 129 132 135 138 141 144 147 150 153 156 159 162 165 168 171 174 177 180 183 186 189 192 195 198 201 204 207 210 213 216 219 222 225 228 231 234 237 240 243 246 249 252 255 258 261 264 267 270 273 276 279 282 285 288 291 294 297 300 303 306 309 312 315 318 321 324 327 330 333 336 339 342 345 348 351 354 357 360 363 366 369 372 375 378 381 384 387 390 393 396 399 402 405 408 411 414 417 420 423 426 429 432 435 438 441 444 447 450 453 456 459 462 465 468 471 474 477 480 483 486 489 492 495 498 501 504 507 510 513 516 519 522 525 528 531 534 537 540 543 546 549 552 555 558 561 564 567 570 573 576 579 582 585 588 591 594 597 600 603 606 609 612 615 618 621 624 </DataArray>
<DataArray  type="UInt8"  Name="types"  format="ascii">5 5 5 5 5 5 5 5 5 5 5 5 5 5 5 5 5 5 5 5 5 5 5 5 5 5 5 5 5 5 5 5 5 5 5 5 5 5 5 5 5 5 5 5 5 5 5 5 5 5 5 5 5 5 5 5 5 5 5 5 5 5 5 5 5 5 5 5 5 5 5 5 5 5 5 5 5 5 5 5 5 5 5 5 5 5 5 5 5 5 5 5 5 5 5 5 5 5 5 5 5 5 5 5 5 5 5 5 5 5 5 5 5 5 5 5 5 5 5 5 5 5 5 5 5 5 5 5 5 5 5 5 5 5 5 5 5 5 5 5 5 5 5 5 5 5 5 5 5 5 5 5 5 5 5 5 5 5 5 5 5 5 5 5 5 5 5 5 5 5 5 5 5 5 5 5 5 5 5 5 5 5 5 5 5 5 5 5 5 5 5 5 5 5 5 5 5 5 5 5 5 5 5 5 5 5 5 5 </DataArray>
</Cells>
<PointData  Vectors="Displacement"> 
<DataArray  type="Float64"  Name="Displacement"  NumberOfComponents="3" format="ascii">3.4564053485736335e-04 1.8560712402222149e-04 0.0000000000000000e+00  3.9114309250134279e-04 7.2451514042399157e-05 0.0000000000000000e+00  4.0985234440774461e-04 1.1265608163704607e-04 0.0000000000000000e+00  4.0670905210075898e-04 1.4581752187778674e-04 0.0000000000000000e+00  3.9827775967628921e-04 1.7307900184316302e-04 0.0000000000000000e+00  3.8685152626827344e-04 1.9211304342152969e-04 0.0000000000000000e+00  3.7649131244778060e-04 2.0099417859650159e-04 0.0000000000000000e+00  3.6739943854590648e-04 2.0623221120578234e-04 0.0000000000000000e+00  3.6117779561585647e-04 2.0704882081292209e-04 0.0000000000000000e+00  3.5465471588249015e-04 2.0730055230597656e-04 0.0000000000000000e+00  3.4655132822572715e-04 2.0287499871138130e-04 0.0000000000000000e+00  3.3888041845093277e-04 1.9758805004728219e-04 0.0000000000000000e+00  3.3321318968265615e-04 1.8885227310631554e-04 0.0000000000000000e+00  3.3056753934645322e-04 1.8220975898645676e-04 0.0000000000000000e+00  3.2862505781226667e-04 1.7317752475359615e-04 0.0000000000000000e+00  3.2791222670705843e-04 1.6655751384692384e-04 0.0000000000000000e+00  3.2426278464057302e-04 1.5925992987847487e-04 0.0000000000000000e+00  3.2291350882791299e-04 1.5041800708493963e-04 0.0000000000000000e+00  3.2183402889720511e-04 1.4271945377348203e-04 0.0000000000000000e+00  3.2243642492302944e-04 1.3459564124436619e-04 0.0000000000000000e+00  3.2532747122323311e-04 1.3082692116112731e-04 0.0000000000000000e+00  3.2862323896687802e-04 1.3230993761089875e-04 0.0000000000000000e+00  3.2720175328175923e-04 1.3471494701072434e-04 0.0000000000000000e+00  3.2687432403936842e-04 1.3271458238114421e-04 0.0000000000000000e+00  3.2953726826030749e-04 1.3088556360839589e-04 0.0000000000000000e+00  3.3979572759685217e-04 1.3101189013503295e-04 0.0000000000000000e+00  3.6122669036892856e-04 1.9112682518339819e-04 0.0000000000000000e+00  3.9120773898303549e-04 8.5821299352410878e-05 0.0000000000000000e+00  3.9394454686302049e-04 7.5417126071069559e-05 0.0000000000000000e+00  3.8701150676193313e-04 1.1081922507162275e-04 0.0000000000000000e+00  3.8307348412808012e-04 1.4670165004144063e-04 0.0000000000000000e+00  3.7908433193660046e-04 1.7604347776236189e-04 0.0000000000000000e+00  3.7446028490457879e-04 1.9592734019732738e-04 0.0000000000000000e+00  3.6829960208775969e-04 2.0451510018457237e-04 0.0000000000000000e+00  3.6430438057047192e-04 2.0933092693834892e-04 0.0000000000000000e+00  3.6075619478051447e-04 2.0920580449531871e-04 0.0000000000000000e+00  3.5571656646561010e-04 2.1028850459627426e-04 0.0000000000000000e+00  3.5063080996945766e-04 2.0628669181828449e-04 0.0000000000000000e+00  3.4493379856787314e-04 2.0034385874883315e-04 0.0000000000000000e+00  3.3958893988768107e-04 1.9140317273250049e-04 0.0000000000000000e+00  3.3690129690755027e-04 1.8225355933804767e-04 0.0000000000000000e+00  3.3533539528250353e-04 1.7416305303631250e-04 0.0000000000000000e+00  3.3227916691812510e-04 1.6785931395466366e-04 0.0000000000000000e+00  3.3079181191551690e-04 1.6015848754945156e-04 0.0000000000000000e+00  3.3053424880464958e-04 1.5093002089257442e-04 0.0000000000000000e+00  3.3064896955960590e-04 1.4323118152272267e-04 0.0000000000000000e+00  3.2919122625699849e-04 1.3539143372016618e-04 0.0000000000000000e+00  3.2840028493653082e-04 1.3070532750269521e-04 0.0000000000000000e+00  3.2779863480020504e-04 1.3253223355551595e-04 0.0000000000000000e+00  3.2855239354537816e-04 1.3428412054150986e-04 0.0000000000000000e+00  3.3102710437490966e-04 1.3287119107778118e-04 0.0000000000000000e+00  3.3244320948858650e-04 1.3089912198164521e-04 0.0000000000000000e+00  3.3099162398113905e-04 1.3639751843579491e-04 0.0000000000000000e+00  3.3384463823187270e-04 1.6450236807238392e-04 0.0000000000000000e+00  3.6921394230001272e-04 4.2209141874678125e-05 0.0000000000000000e+00  3.7685106589672410e-04 7.8511904315386782e-05 0.0000000000000000e+00  3.6818256858236255e-04 1.1471588593400090e-04 0.0000000000000000e+00  3.6325267426823516e-04 1.4882463042596895e-04 0.0000000000000000e+00  3.6249405408850097e-04 1.7812472373340891e-04 0.0000000000000000e+00  3.6179839410294432e-04 1.9770178167615300e-04 0.0000000000000000e+00  3.6037175164792571e-04 2.0688326823254503e-04 0.0000000000000000e+00  3.5973720059087052e-04 2.0992941322758049e-04 0.0000000000000000e+00  3.5981834009269264e-04 2.1071476871295093e-04 0.0000000000000000e+00  3.5676984953898197e-04 2.1328210023970127e-04 0.0000000000000000e+00  3.5404108326910145e-04 2.0932073714224317e-04 0.0000000000000000e+00  3.4918101599495536e-04 2.0319575164514400e-04 0.0000000000000000e+00  3.4550685110333455e-04 1.9394475204320067e-04 0.0000000000000000e+00  3.4359382642974945e-04 1.8553991269862046e-04 0.0000000000000000e+00  3.4001933388966038e-04 1.7651061872240402e-04 0.0000000000000000e+00  3.3939050724332489e-04 1.7046748940044041e-04 0.0000000000000000e+00  3.3628420166592263e-04 1.6100739853545292e-04 0.0000000000000000e+00  3.3697010931036731e-04 1.5123089222203234e-04 0.0000000000000000e+00  3.3725040603772486e-04 1.4246385720007509e-04 0.0000000000000000e+00  3.3740107504580944e-04 1.3872019928406771e-04 0.0000000000000000e+00  3.3241369593309283e-04 1.3273737091962177e-04 0.0000000000000000e+00  3.2948142151545103e-04 1.3249329887078510e-04 0.0000000000000000e+00  3.2759568732804655e-04 1.3381689771865723e-04 0.0000000000000000e+00  3.2780801995963406e-04 1.3179407475401376e-04 0.0000000000000000e+00  3.2832718981720010e-04 1.3256512457903729e-04 0.0000000000000000e+00  3.2571836283087435e-04 1.3947954603434258e-04 0.0000000000000000e+00  3.2656632285512775e-04 1.5662726223380688e-04 0.0000000000000000e+00  3.3546831801537804e-04 7.5163554149468079e-07 0.0000000000000000e+00  3.4362118607668158e-04 7.6553202749056920e-05 0.0000000000000000e+00  3.4054197335775375e-04 1.1791657630387279e-04 0.0000000000000000e+00  3.4257376754600634e-04 1.4884356914809290e-04 0.0000000000000000e+00  3.4553471899959114e-04 1.7771993359581948e-04 0.0000000000000000e+00  3.4891638822811942e-04 1.9663762608563654e-04 0.0000000000000000e+00  3.5321077545883529e-04 2.0457859389876195e-04 0.0000000000000000e+00  3.5615325332097574e-04 2.0861995125274533e-04 0.0000000000000000e+00  3.5726668378903176e-04 2.1114904297924456e-04 0.0000000000000000e+00  3.5705066018412019e-04 2.1374245798508329e-04 0.0000000000000000e+00  3.5682832127957657e-04 2.1058682836730524e-04 0.0000000000000000e+00  3.5366312671416612e-04 2.0574619020284727e-04 0.0000000000000000e+00  3.5096919791177889e-04 1.9435782035625781e-04 0.0000000000000000e+00  3.5011785504300786e-04 1.8643542187461371e-04 0.0000000000000000e+00  3.4876543920531178e-04 1.7730861716362559e-04 0.0000000000000000e+00  3.4619381449740074e-04 1.7121537857614204e-04 0.0000000000000000e+00  3.4319177401880338e-04 1.6087787662871187e-04 0.0000000000000000e+00  3.4339618484337421e-04 1.5055977725772507e-04 0.0000000000000000e+00  3.4151470225657587e-04 1.4085322294377363e-04 0.0000000000000000e+00  3.4001072720290403e-04 1.3999922358634312e-04 0.0000000000000000e+00  3.3578898236978822e-04 1.3597920454793384e-04 0.0000000000000000e+00  3.3280411296175591e-04 1.3336160417956160e-04 0.0000000000000000e+00  3.2816556424693444e-04 1.3523230463162184e-04 0.0000000000000000e+00  3.2463840898752292e-04 1.3121020319526678e-04 0.0000000000000000e+00  3.2349620972985099e-04 1.3203483016648471e-04 0.0000000000000000e+00  3.2150295103013153e-04 1.4076625782948358e-04 0.0000000000000000e+00  3.1870524049314359e-04 1.5337270294877464e-04 0.0000000000000000e+00  2.2418375391619421e-04 -9.6430730019640573e-05 0.0000000000000000e+00  2.8563182776916496e-04 7.3229713450661667e-05 0.0000000000000000e+00  3.0837772477385913e-04 1.1452982219395020e-04 0.0000000000000000e+00  3.1790865217998172e-04 1.4556678225036387e-04 0.0000000000000000e+00  3.2708401348706108e-04 1.7399068982161490e-04 0.0000000000000000e+00  3.3821930375646541e-04 1.9256597548178263e-04 0.0000000000000000e+00  3.4625824846728592e-04 2.0079120694360838e-04 0.0000000000000000e+00  3.5126195444300088e-04 2.0678271812759325e-04 0.0000000000000000e+00  3.5455726915133178e-04 2.0993757533639449e-04 0.0000000000000000e+00  3.5687063680628415e-04 2.1246753189985490e-04 0.0000000000000000e+00  3.5816639523301606e-04 2.1036909869792819e-04 0.0000000000000000e+00  3.5987120188995213e-04 2.0548130223844679e-04 0.0000000000000000e+00  3.5905448815385770e-04 1.9532327113514929e-04 0.0000000000000000e+00  3.5664550502554525e-04 1.8599863107942197e-04 0.0000000000000000e+00  3.5473543871277722e-04 1.7780865623837671e-04 0.0000000000000000e+00  3.5381162564198575e-04 1.7230199721083957e-04 0.0000000000000000e+00  3.5257770523971002e-04 1.6119899795697943e-04 0.0000000000000000e+00  3.4943110073615491e-04 1.5095200173189397e-04 0.0000000000000000e+00  3.4569585911398690e-04 1.4283046354787417e-04 0.0000000000000000e+00  3.3975466334918434e-04 1.4172566580055503e-04 0.0000000000000000e+00  3.3789800677924556e-04 1.3678405105561900e-04 0.0000000000000000e+00  3.3247688281112803e-04 1.3517694356247057e-04 0.0000000000000000e+00  3.2979571129134789e-04 1.3603255182221993e-04 0.0000000000000000e+00  3.2552050423332110e-04 1.3211758394894452e-04 0.0000000000000000e+00  3.2013893005449921e-04 1.3360650343307835e-04 0.0000000000000000e+00  3.1348301360792342e-04 1.4269699478765610e-04 0.0000000000000000e+00  3.1098444732662576e-04 1.5654252645227489e-04 0.0000000000000000e+00  </DataArray> 
</PointData> 
</Piece>
</UnstructuredGrid>
</VTKFile>