<?xml version="1.0"?>
<VTKFile type="UnstructuredGrid"  version="0.1"  >
<UnstructuredGrid>
<Piece  NumberOfPoints="135" NumberOfCells="208">
<Points>
<DataArray  type="Float64"  NumberOfComponents="3"  format="ascii">1 1 0  1.076923076923077 1 0  1.153846153846154 1 0  1.230769230769231 1 0  1.307692307692308 1 0  1.384615384615385 1 0  1.461538461538462 1 0  1.538461538461538 1 0  1.615384615384615 1 0  1.692307692307692 1 0  1.769230769230769 1 0  1.846153846153846 1 0  1.923076923076923 1 0  2 1 0  2.076923076923077 1 0  2.153846153846154 1 0  2.230769230769231 1 0  2.307692307692307 1 0  2.384615384615385 1 0  2.461538461538462 1 0  2.538461538461538 1 0  2.615384615384615 1 0  2.692307692307693 1 0  2.769230769230769 1 0  2.846153846153846 1 0  2.923076923076923 1 0  3 1 0  1 1.0625 0  1.076923076923077 1.0625 0  1.153846153846154 1.0625 0  1.230769230769231 1.0625 0  1.307692307692308 1.0625 0  1.384615384615385 1.0625 0  1.461538461538462 1.0625 0  1.538461538461538 1.0625 0  1.615384615384615 1.0625 0  1.692307692307692 1.0625 0  1.769230769230769 1.0625 0  1.846153846153846 1.0625 0  1.923076923076923 1.0625 0  2 1.0625 0  2.076923076923077 1.0625 0  2.153846153846154 1.0625 0  2.230769230769231 1.0625 0  2.307692307692307 1.0625 0  2.384615384615385 1.0625 0  2.461538461538462 1.0625 0  2.538461538461538 1.0625 0  2.615384615384615 1.0625 0  2.692307692307693 1.0625 0  2.769230769230769 1.0625 0  2.846153846153846 1.0625 0  2.923076923076923 1.0625 0  3 1.0625 0  1 1.125 0  1.076923076923077 1.125 0  1.153846153846154 1.125 0  1.230769230769231 1.125 0  1.307692307692308 1.125 0  1.384615384615385 1.125 0  1.461538461538462 1.125 0  1.538461538461538 1.125 0  1.615384615384615 1.125 0  1.692307692307692 1.125 0  1.769230769230769 1.125 0  1.846153846153846 1.125 0  1.923076923076923 1.125 0  2 1.125 0  2.076923076923077 1.125 0  2.153846153846154 1.125 0  2.230769230769231 1.125 0  2.307692307692307 1.125 0  2.384615384615385 1.125 0  2.461538461538462 1.125 0  2.538461538461538 1.125 0  2.615384615384615 1.125 0  2.692307692307693 1.125 0  2.769230769230769 1.125 0  2.846153846153846 1.125 0  2.923076923076923 1.125 0  3 1.125 0  1 1.1875 0  1.076923076923077 1.1875 0  1.153846153846154 1.1875 0  1.230769230769231 1.1875 0  1.307692307692308 1.1875 0  1.384615384615385 1.1875 0  1.461538461538462 1.1875 0  1.538461538461538 1.1875 0  1.615384615384615 1.1875 0  1.692307692307692 1.1875 0  1.769230769230769 1.1875 0  1.846153846153846 1.1875 0  1.923076923076923 1.1875 0  2 1.1875 0  2.076923076923077 1.1875 0  2.153846153846154 1.1875 0  2.230769230769231 1.1875 0  2.307692307692307 1.1875 0  2.384615384615385 1.1875 0  2.461538461538462 1.1875 0  2.538461538461538 1.1875 0  2.615384615384615 1.1875 0  2.692307692307693 1.1875 0  2.769230769230769 1.1875 0  2.846153846153846 1.1875 0  2.923076923076923 1.1875 0  3 1.1875 0  1 1.25 0  1.076923076923077 1.25 0  1.153846153846154 1.25 0  1.230769230769231 1.25 0  1.307692307692308 1.25 0  1.384615384615385 1.25 0  1.461538461538462 1.25 0  1.538461538461538 1.25 0  1.615384615384615 1.25 0  1.692307692307692 1.25 0  1.769230769230769 1.25 0  1.846153846153846 1.25 0  1.923076923076923 1.25 0  2 1.25 0  2.076923076923077 1.25 0  2.153846153846154 1.25 0  2.230769230769231 1.25 0  2.307692307692307 1.25 0  2.384615384615385 1.25 0  2.461538461538462 1.25 0  2.538461538461538 1.25 0  2.615384615384615 1.25 0  2.692307692307693 1.25 0  2.769230769230769 1.25 0  2.846153846153846 1.25 0  2.923076923076923 1.25 0  3 1.25 0  </DataArray>
</Points>
<Cells>
<DataArray  type="UInt32"  Name="connectivity"  format="ascii">0 1 28  0 27 28  1 2 29  1 28 29  2 3 30  2 29 30  3 4 31  3 30 31  4 5 32  4 31 32  5 6 33  5 32 33  6 7 34  6 33 34  7 8 35  7 34 35  8 9 36  8 35 36  9 10 37  9 36 37  10 11 38  10 37 38  11 12 39  11 38 39  12 13 40  12 39 40  13 14 41  13 40 41  14 15 42  14 41 42  15 16 43  15 42 43  16 17 44  16 43 44  17 18 45  17 44 45  18 19 46  18 45 46  19 20 47  19 46 47  20 21 48  20 47 48  21 22 49  21 48 49  22 23 50  22 49 50  23 24 51  23 50 51  24 25 52  24 51 52  25 26 53  25 52 53  27 28 55  27 54 55  28 29 56  28 55 56  29 30 57  29 56 57  30 31 58  30 57 58  31 32 59  31 58 59  32 33 60  32 59 60  33 34 61  33 60 61  34 35 62  34 61 62  35 36 63  35 62 63  36 37 64  36 63 64  37 38 65  37 64 65  38 39 66  38 65 66  39 40 67  39 66 67  40 41 68  40 67 68  41 42 69  41 68 69  42 43 70  42 69 70  43 44 71  43 70 71  44 45 72  44 71 72  45 46 73  45 72 73  46 47 74  46 73 74  47 48 75  47 74 75  48 49 76  48 75 76  49 50 77  49 76 77  50 51 78  50 77 78  51 52 79  51 78 79  52 53 80  52 79 80  54 55 82  54 81 82  55 56 83  55 82 83  56 57 84  56 83 84  57 58 85  57 84 85  58 59 86  58 85 86  59 60 87  59 86 87  60 61 88  60 87 88  61 62 89  61 88 89  62 63 90  62 89 90  63 64 91  63 90 91  64 65 92  64 91 92  65 66 93  65 92 93  66 67 94  66 93 94  67 68 95  67 94 95  68 69 96  68 95 96  69 70 97  69 96 97  70 71 98  70 97 98  71 72 99  71 98 99  72 73 100  72 99 100  73 74 101  73 100 101  74 75 102  74 101 102  75 76 103  75 102 103  76 77 104  76 103 104  77 78 105  77 104 105  78 79 106  78 105 106  79 80 107  79 106 107  81 82 109  81 108 109  82 83 110  82 109 110  83 84 111  83 110 111  84 85 112  84 111 112  85 86 113  85 112 113  86 87 114  86 113 114  87 88 115  87 114 115  88 89 116  88 115 116  89 90 117  89 116 117  90 91 118  90 117 118  91 92 119  91 118 119  92 93 120  92 119 120  93 94 121  93 120 121  94 95 122  94 121 122  95 96 123  95 122 123  96 97 124  96 123 124  97 98 125  97 124 125  98 99 126  98 125 126  99 100 127  99 126 127  100 101 128  100 127 128  101 102 129  101 128 129  102 103 130  102 129 130  103 104 131  103 130 131  104 105 132  104 131 132  105 106 133  105 132 133  106 107 134  106 133 134  </DataArray>
<DataArray  type="UInt32"  Name="offsets"  format="ascii">3 6 9 12 15 18 21 24 27 30 33 36 39 42 45 48 51 54 57 60 63 66 69 72 75 78 81 84 87 90 93 96 99 102 105 108 111 114 117 120 123 126 129 132 135 138 141 144 147 150 153 156 159 162 165 168 171 174 177 180 183 186 189 192 195 198 201 204 207 210 213 216 219 222 225 228 231 234 237 240 243 246 249 252 255 258 261 264 267 270 273 276 279 282 285 288 291 294 297 300 303 306 309 312 315 318 321 324 327 330 333 336 339 342 345 348 351 354 357 360 363 366 369 372 375 378 381 384 387 390 393 396 399 402 405 408 411 414 417 420 423 426 429 432 435 438 441 444 447 450 453 456 459 462 465 468 471 474 477 480 483 486 489 492 495 498 501 504 507 510 513 516 519 522 525 528 531 534 537 540 543 546 549 552 555 558 561 564 567 570 573 576 579 582 585 588 591 594 597 600 603 606 609 612 615 618 621 624 </DataArray>
<DataArray  type="UInt8"  Name="types"  format="ascii">5 5 5 5 5 5 5 5 5 5 5 5 5 5 5 5 5 5 5 5 5 5 5 5 5 5 5 5 5 5 5 5 5 5 5 5 5 5 5 5 5 5 5 5 5 5 5 5 5 5 5 5 5 5 5 5 5 5 5 5 5 5 5 5 5 5 5 5 5 5 5 5 5 5 5 5 5 5 5 5 5 5 5 5 5 5 5 5 5 5 5 5 5 5 5 5 5 5 5 5 5 5 5 5 5 5 5 5 5 5 5 5 5 5 5 5 5 5 5 5 5 5 5 5 5 5 5 5 5 5 5 5 5 5 5 5 5 5 5 5 5 5 5 5 5 5 5 5 5 5 5 5 5 5 5 5 5 5 5 5 5 5 5 5 5 5 5 5 5 5 5 5 5 5 5 5 5 5 5 5 5 5 5 5 5 5 5 5 5 5 5 5 5 5 5 5 5 5 5 5 5 5 5 5 5 5 5 5 </DataArray>
</Cells>
<PointData  Vectors="Displacement"> 
<DataArray  type="Float64"  Name="Displacement"  NumberOfComponents="3" format="ascii">7.2640982803702004e-04 1.4687401827576959e-04 0.0000000000000000e+00  7.7344864646111363e-04 5.8968800310501215e-05 0.0000000000000000e+00  7.8486648545392722e-04 1.1731487322829432e-04 0.0000000000000000e+00  7.7529730857693678e-04 1.6387405433425755e-04 0.0000000000000000e+00  7.6119921190748619e-04 2.0668625578929738e-04 0.0000000000000000e+00  7.4192920891511785e-04 2.3289698768766146e-04 0.0000000000000000e+00  7.2733814568913860e-04 2.5230984829410785e-04 0.0000000000000000e+00  7.1251153258351687e-04 2.6887052971829158e-04 0.0000000000000000e+00  7.0074808436616798e-04 2.7743204447760062e-04 0.0000000000000000e+00  6.8921831891775702e-04 2.8032270097444153e-04 0.0000000000000000e+00  6.7822003196293175e-04 2.7724426238990018e-04 0.0000000000000000e+00  6.6749490304724378e-04 2.7424631697042432e-04 0.0000000000000000e+00  6.5858323246115126e-04 2.6686017994996601e-04 0.0000000000000000e+00  6.5149578289775399e-04 2.5913880595141825e-04 0.0000000000000000e+00  6.4518209562241559e-04 2.5169623741003422e-04 0.0000000000000000e+00  6.4130141689757749e-04 2.4089756440747763e-04 0.0000000000000000e+00  6.3856270234399499e-04 2.3048077657422076e-04 0.0000000000000000e+00  6.3901736380121048e-04 2.2649259930452683e-04 0.0000000000000000e+00  6.3685349328225190e-04 2.2035492177096825e-04 0.0000000000000000e+00  6.3570331469343748e-04 2.1402640924973417e-04 0.0000000000000000e+00  6.3564395094397545e-04 2.0988314684895434e-04 0.0000000000000000e+00  6.3692104725812985e-04 2.0964377917250318e-04 0.0000000000000000e+00  6.3790615292347666e-04 2.1244887543834474e-04 0.0000000000000000e+00  6.3748813008847229e-04 2.1678408361928039e-04 0.0000000000000000e+00  6.3898877030387153e-04 2.2340489553973340e-04 0.0000000000000000e+00  6.4346794732079537e-04 2.2467305150712766e-04 0.0000000000000000e+00  6.6348611421996522e-04 2.8883042699945886e-04 0.0000000000000000e+00  7.5832825006998659e-04 4.8409620864511363e-05 0.0000000000000000e+00  7.5799713029209629e-04 6.3382648549844956e-05 0.0000000000000000e+00  7.4732451907328420e-04 1.1855183996248293e-04 0.0000000000000000e+00  7.3826883266804003e-04 1.6788120497217542e-04 0.0000000000000000e+00  7.2992000002970910e-04 2.1136227695180739e-04 0.0000000000000000e+00  7.2116551655992554e-04 2.3966910932888462e-04 0.0000000000000000e+00  7.1053007070481073e-04 2.5925918499065855e-04 0.0000000000000000e+00  7.0186673588053207e-04 2.7442384472745128e-04 0.0000000000000000e+00  6.9359162351478399e-04 2.8243687731264333e-04 0.0000000000000000e+00  6.8740033161224473e-04 2.8554269534488097e-04 0.0000000000000000e+00  6.7842991128346419e-04 2.8305181535520402e-04 0.0000000000000000e+00  6.7095069080013196e-04 2.7920579125693566e-04 0.0000000000000000e+00  6.6411185549542797e-04 2.7173919208456349e-04 0.0000000000000000e+00  6.5724833358241270e-04 2.6376640745974929e-04 0.0000000000000000e+00  6.5201565538818842e-04 2.5421692633698838e-04 0.0000000000000000e+00  6.4955044733176824e-04 2.4318593204853924e-04 0.0000000000000000e+00  6.4626899806088944e-04 2.3225824707071588e-04 0.0000000000000000e+00  6.4460304325508018e-04 2.2703709534211786e-04 0.0000000000000000e+00  6.4331067899532309e-04 2.2129833546008588e-04 0.0000000000000000e+00  6.4187958440302438e-04 2.1552505296626901e-04 0.0000000000000000e+00  6.3937298864027048e-04 2.1112550658030008e-04 0.0000000000000000e+00  6.3728081782994065e-04 2.1010356371677384e-04 0.0000000000000000e+00  6.3675891110767321e-04 2.1353105091022264e-04 0.0000000000000000e+00  6.3653539043921680e-04 2.1718591237436199e-04 0.0000000000000000e+00  6.3596349525605472e-04 2.2350581703147552e-04 0.0000000000000000e+00  6.3164934863062727e-04 2.3319862166059613e-04 0.0000000000000000e+00  6.3110496078982656e-04 2.6002224052561055e-04 0.0000000000000000e+00  7.1782341564186492e-04 6.5865838027939596e-06 0.0000000000000000e+00  7.2249339539169133e-04 6.8186510271543349e-05 0.0000000000000000e+00  7.1285352295204999e-04 1.2398316317135624e-04 0.0000000000000000e+00  7.0496776194454720e-04 1.7243731672728251e-04 0.0000000000000000e+00  7.0027130129574284e-04 2.1383380813730851e-04 0.0000000000000000e+00  6.9728720771079550e-04 2.4304400080693906e-04 0.0000000000000000e+00  6.9395219965468413e-04 2.6314462158646957e-04 0.0000000000000000e+00  6.9084949166209591e-04 2.7748212039675117e-04 0.0000000000000000e+00  6.8594541859161849e-04 2.8584895597158754e-04 0.0000000000000000e+00  6.8238826576809387e-04 2.8822692564886630e-04 0.0000000000000000e+00  6.7701663073708876e-04 2.8702633919745063e-04 0.0000000000000000e+00  6.7336818188997068e-04 2.8248876818831478e-04 0.0000000000000000e+00  6.6728579608123879e-04 2.7448093874722618e-04 0.0000000000000000e+00  6.6308146162809875e-04 2.6741415645257306e-04 0.0000000000000000e+00  6.5847434000184421e-04 2.5536075771063121e-04 0.0000000000000000e+00  6.5609012335853976e-04 2.4382419035147757e-04 0.0000000000000000e+00  6.5244398773052113e-04 2.3380433490413811e-04 0.0000000000000000e+00  6.5034657932612212e-04 2.2724494750704684e-04 0.0000000000000000e+00  6.4762244232539109e-04 2.2223269038079040e-04 0.0000000000000000e+00  6.4458470341375912e-04 2.1771279428211440e-04 0.0000000000000000e+00  6.4184960827749608e-04 2.1311114976024485e-04 0.0000000000000000e+00  6.3788504858416451e-04 2.1166068222914442e-04 0.0000000000000000e+00  6.3542230410475295e-04 2.1356141044796844e-04 0.0000000000000000e+00  6.3332295934379946e-04 2.1803275363759865e-04 0.0000000000000000e+00  6.3058691994454593e-04 2.2557382007437610e-04 0.0000000000000000e+00  6.2565733519965813e-04 2.3760564190558880e-04 0.0000000000000000e+00  6.2611065910156589e-04 2.5078748528770589e-04 0.0000000000000000e+00  6.6032698476404183e-04 -3.1915712156811633e-05 0.0000000000000000e+00  6.7124413617210504e-04 6.7067286925750601e-05 0.0000000000000000e+00  6.7003087264183548e-04 1.2862286915096466e-04 0.0000000000000000e+00  6.7128727540907924e-04 1.7434087460653104e-04 0.0000000000000000e+00  6.7344080051725793e-04 2.1480125295529962e-04 0.0000000000000000e+00  6.7489114854913073e-04 2.4335859056566565e-04 0.0000000000000000e+00  6.7659166201778785e-04 2.6343050582385209e-04 0.0000000000000000e+00  6.7860841991611038e-04 2.7808759377661755e-04 0.0000000000000000e+00  6.7798434278159723e-04 2.8696606815557828e-04 0.0000000000000000e+00  6.7780573199872419e-04 2.8961950756687782e-04 0.0000000000000000e+00  6.7591234897495937e-04 2.8764606034130190e-04 0.0000000000000000e+00  6.7530077390630394e-04 2.8440634757391769e-04 0.0000000000000000e+00  6.7211555955282512e-04 2.7746951326326937e-04 0.0000000000000000e+00  6.6884909257205203e-04 2.6912403560037880e-04 0.0000000000000000e+00  6.6664480325546993e-04 2.5726057229122145e-04 0.0000000000000000e+00  6.6215121310115633e-04 2.4502632670774009e-04 0.0000000000000000e+00  6.5883366575799772e-04 2.3586407203311362e-04 0.0000000000000000e+00  6.5522054073310432e-04 2.2882245235014399e-04 0.0000000000000000e+00  6.5125486659208301e-04 2.2443465724224029e-04 0.0000000000000000e+00  6.4697736123452815e-04 2.1915716515690973e-04 0.0000000000000000e+00  6.4284888795919739e-04 2.1602833548782548e-04 0.0000000000000000e+00  6.3746012718043823e-04 2.1353531593981310e-04 0.0000000000000000e+00  6.3273413781412473e-04 2.1504986916606839e-04 0.0000000000000000e+00  6.2907888077961952e-04 2.1929864294506827e-04 0.0000000000000000e+00  6.2494684076106724e-04 2.2888719075273760e-04 0.0000000000000000e+00  6.2064954032484902e-04 2.4012586273348805e-04 0.0000000000000000e+00  6.2147887246414234e-04 2.4788763983129734e-04 0.0000000000000000e+00  5.3379768540444189e-04 -1.2772122780079601e-04 0.0000000000000000e+00  5.9679760174046403e-04 6.2211000458919799e-05 0.0000000000000000e+00  6.2271914525736038e-04 1.2451407515645785e-04 0.0000000000000000e+00  6.3532182780162336e-04 1.7041065581009711e-04 0.0000000000000000e+00  6.4430699009346726e-04 2.1093426308562251e-04 0.0000000000000000e+00  6.5518423373549456e-04 2.4127573124076545e-04 0.0000000000000000e+00  6.6065990234940003e-04 2.6110590305127273e-04 0.0000000000000000e+00  6.6672032859161929e-04 2.7608476527882496e-04 0.0000000000000000e+00  6.7123904529293663e-04 2.8588242292950386e-04 0.0000000000000000e+00  6.7577905376319794e-04 2.8878573633408318e-04 0.0000000000000000e+00  6.7641958191048100e-04 2.8827115462955638e-04 0.0000000000000000e+00  6.7750702983324074e-04 2.8473698109618959e-04 0.0000000000000000e+00  6.7771056304701731e-04 2.7938852683690054e-04 0.0000000000000000e+00  6.7651836386776478e-04 2.7039362698862797e-04 0.0000000000000000e+00  6.7386594180130822e-04 2.5885722647411976e-04 0.0000000000000000e+00  6.6990976339797645e-04 2.4755953008910331e-04 0.0000000000000000e+00  6.6479659526493115e-04 2.3809869524120939e-04 0.0000000000000000e+00  6.5930719661799449e-04 2.3047134237531684e-04 0.0000000000000000e+00  6.5575951498378273e-04 2.2678843575516371e-04 0.0000000000000000e+00  6.5031661433326358e-04 2.2138019740241212e-04 0.0000000000000000e+00  6.4469075026430778e-04 2.1910816578087696e-04 0.0000000000000000e+00  6.3733375576735161e-04 2.1674838856627042e-04 0.0000000000000000e+00  6.3109274385373781e-04 2.1871253466844252e-04 0.0000000000000000e+00  6.2425373361280078e-04 2.2154229330254938e-04 0.0000000000000000e+00  6.1900841777013955e-04 2.3165704812718574e-04 0.0000000000000000e+00  6.1722197923798328e-04 2.4063572430246943e-04 0.0000000000000000e+00  6.1650425368375719e-04 2.4821616885905504e-04 0.0000000000000000e+00  </DataArray> 
</PointData> 
</Piece>
</UnstructuredGrid>
</VTKFile>