<?xml version="1.0"?>
<VTKFile type="UnstructuredGrid"  version="0.1"  >
<UnstructuredGrid>
<Piece  NumberOfPoints="135" NumberOfCells="208">
<Points>
<DataArray  type="Float64"  NumberOfComponents="3"  format="ascii">1 1 0  1.076923076923077 1 0  1.153846153846154 1 0  1.230769230769231 1 0  1.307692307692308 1 0  1.384615384615385 1 0  1.461538461538462 1 0  1.538461538461538 1 0  1.615384615384615 1 0  1.692307692307692 1 0  1.769230769230769 1 0  1.846153846153846 1 0  1.923076923076923 1 0  2 1 0  2.076923076923077 1 0  2.153846153846154 1 0  2.230769230769231 1 0  2.307692307692307 1 0  2.384615384615385 1 0  2.461538461538462 1 0  2.538461538461538 1 0  2.615384615384615 1 0  2.692307692307693 1 0  2.769230769230769 1 0  2.846153846153846 1 0  2.923076923076923 1 0  3 1 0  1 1.0625 0  1.076923076923077 1.0625 0  1.153846153846154 1.0625 0  1.230769230769231 1.0625 0  1.307692307692308 1.0625 0  1.384615384615385 1.0625 0  1.461538461538462 1.0625 0  1.538461538461538 1.0625 0  1.615384615384615 1.0625 0  1.692307692307692 1.0625 0  1.769230769230769 1.0625 0  1.846153846153846 1.0625 0  1.923076923076923 1.0625 0  2 1.0625 0  2.076923076923077 1.0625 0  2.153846153846154 1.0625 0  2.230769230769231 1.0625 0  2.307692307692307 1.0625 0  2.384615384615385 1.0625 0  2.461538461538462 1.0625 0  2.538461538461538 1.0625 0  2.615384615384615 1.0625 0  2.692307692307693 1.0625 0  2.769230769230769 1.0625 0  2.846153846153846 1.0625 0  2.923076923076923 1.0625 0  3 1.0625 0  1 1.125 0  1.076923076923077 1.125 0  1.153846153846154 1.125 0  1.230769230769231 1.125 0  1.307692307692308 1.125 0  1.384615384615385 1.125 0  1.461538461538462 1.125 0  1.538461538461538 1.125 0  1.615384615384615 1.125 0  1.692307692307692 1.125 0  1.769230769230769 1.125 0  1.846153846153846 1.125 0  1.923076923076923 1.125 0  2 1.125 0  2.076923076923077 1.125 0  2.153846153846154 1.125 0  2.230769230769231 1.125 0  2.307692307692307 1.125 0  2.384615384615385 1.125 0  2.461538461538462 1.125 0  2.538461538461538 1.125 0  2.615384615384615 1.125 0  2.692307692307693 1.125 0  2.769230769230769 1.125 0  2.846153846153846 1.125 0  2.923076923076923 1.125 0  3 1.125 0  1 1.1875 0  1.076923076923077 1.1875 0  1.153846153846154 1.1875 0  1.230769230769231 1.1875 0  1.307692307692308 1.1875 0  1.384615384615385 1.1875 0  1.461538461538462 1.1875 0  1.538461538461538 1.1875 0  1.615384615384615 1.1875 0  1.692307692307692 1.1875 0  1.769230769230769 1.1875 0  1.846153846153846 1.1875 0  1.923076923076923 1.1875 0  2 1.1875 0  2.076923076923077 1.1875 0  2.153846153846154 1.1875 0  2.230769230769231 1.1875 0  2.307692307692307 1.1875 0  2.384615384615385 1.1875 0  2.461538461538462 1.1875 0  2.538461538461538 1.1875 0  2.615384615384615 1.1875 0  2.692307692307693 1.1875 0  2.769230769230769 1.1875 0  2.846153846153846 1.1875 0  2.923076923076923 1.1875 0  3 1.1875 0  1 1.25 0  1.076923076923077 1.25 0  1.153846153846154 1.25 0  1.230769230769231 1.25 0  1.307692307692308 1.25 0  1.384615384615385 1.25 0  1.461538461538462 1.25 0  1.538461538461538 1.25 0  1.615384615384615 1.25 0  1.692307692307692 1.25 0  1.769230769230769 1.25 0  1.846153846153846 1.25 0  1.923076923076923 1.25 0  2 1.25 0  2.076923076923077 1.25 0  2.153846153846154 1.25 0  2.230769230769231 1.25 0  2.307692307692307 1.25 0  2.384615384615385 1.25 0  2.461538461538462 1.25 0  2.538461538461538 1.25 0  2.615384615384615 1.25 0  2.692307692307693 1.25 0  2.769230769230769 1.25 0  2.846153846153846 1.25 0  2.923076923076923 1.25 0  3 1.25 0  </DataArray>
</Points>
<Cells>
<DataArray  type="UInt32"  Name="connectivity"  format="ascii">0 1 28  0 27 28  1 2 29  1 28 29  2 3 30  2 29 30  3 4 31  3 30 31  4 5 32  4 31 32  5 6 33  5 32 33  6 7 34  6 33 34  7 8 35  7 34 35  8 9 36  8 35 36  9 10 37  9 36 37  10 11 38  10 37 38  11 12 39  11 38 39  12 13 40  12 39 40  13 14 41  13 40 41  14 15 42  14 41 42  15 16 43  15 42 43  16 17 44  16 43 44  17 18 45  17 44 45  18 19 46  18 45 46  19 20 47  19 46 47  20 21 48  20 47 48  21 22 49  21 48 49  22 23 50  22 49 50  23 24 51  23 50 51  24 25 52  24 51 52  25 26 53  25 52 53  27 28 55  27 54 55  28 29 56  28 55 56  29 30 57  29 56 57  30 31 58  30 57 58  31 32 59  31 58 59  32 33 60  32 59 60  33 34 61  33 60 61  34 35 62  34 61 62  35 36 63  35 62 63  36 37 64  36 63 64  37 38 65  37 64 65  38 39 66  38 65 66  39 40 67  39 66 67  40 41 68  40 67 68  41 42 69  41 68 69  42 43 70  42 69 70  43 44 71  43 70 71  44 45 72  44 71 72  45 46 73  45 72 73  46 47 74  46 73 74  47 48 75  47 74 75  48 49 76  48 75 76  49 50 77  49 76 77  50 51 78  50 77 78  51 52 79  51 78 79  52 53 80  52 79 80  54 55 82  54 81 82  55 56 83  55 82 83  56 57 84  56 83 84  57 58 85  57 84 85  58 59 86  58 85 86  59 60 87  59 86 87  60 61 88  60 87 88  61 62 89  61 88 89  62 63 90  62 89 90  63 64 91  63 90 91  64 65 92  64 91 92  65 66 93  65 92 93  66 67 94  66 93 94  67 68 95  67 94 95  68 69 96  68 95 96  69 70 97  69 96 97  70 71 98  70 97 98  71 72 99  71 98 99  72 73 100  72 99 100  73 74 101  73 100 101  74 75 102  74 101 102  75 76 103  75 102 103  76 77 104  76 103 104  77 78 105  77 104 105  78 79 106  78 105 106  79 80 107  79 106 107  81 82 109  81 108 109  82 83 110  82 109 110  83 84 111  83 110 111  84 85 112  84 111 112  85 86 113  85 112 113  86 87 114  86 113 114  87 88 115  87 114 115  88 89 116  88 115 116  89 90 117  89 116 117  90 91 118  90 117 118  91 92 119  91 118 119  92 93 120  92 119 120  93 94 121  93 120 121  94 95 122  94 121 122  95 96 123  95 122 123  96 97 124  96 123 124  97 98 125  97 124 125  98 99 126  98 125 126  99 100 127  99 126 127  100 101 128  100 127 128  101 102 129  101 128 129  102 103 130  102 129 130  103 104 131  103 130 131  104 105 132  104 131 132  105 106 133  105 132 133  106 107 134  106 133 134  </DataArray>
<DataArray  type="UInt32"  Name="offsets"  format="ascii">3 6 9 12 15 18 21 24 27 30 33 36 39 42 45 48 51 54 57 60 63 66 69 72 75 78 81 84 87 90 93 96 99 102 105 108 111 114 117 120 123 126 129 132 135 138 141 144 147 150 153 156 159 162 165 168 171 174 177 180 183 186 189 192 195 198 201 204 207 210 213 216 219 222 225 228 231 234 237 240 243 246 249 252 255 258 261 264 267 270 273 276 279 282 285 288 291 294 297 300 303 306 309 312 315 318 321 324 327 330 333 336 339 342 345 348 351 354 357 360 363 366 369 372 375 378 381 384 387 390 393 396 399 402 405 408 411 414 417 420 423 426 429 432 435 438 441 444 447 450 453 456 459 462 465 468 471 474 477 480 483 486 489 492 495 498 501 504 507 510 513 516 519 522 525 528 531 534 537 540 543 546 549 552 555 558 561 564 567 570 573 576 579 582 585 588 591 594 597 600 603 606 609 612 615 618 621 624 </DataArray>
<DataArray  type="UInt8"  Name="types"  format="ascii">5 5 5 5 5 5 5 5 5 5 5 5 5 5 5 5 5 5 5 5 5 5 5 5 5 5 5 5 5 5 5 5 5 5 5 5 5 5 5 5 5 5 5 5 5 5 5 5 5 5 5 5 5 5 5 5 5 5 5 5 5 5 5 5 5 5 5 5 5 5 5 5 5 5 5 5 5 5 5 5 5 5 5 5 5 5 5 5 5 5 5 5 5 5 5 5 5 5 5 5 5 5 5 5 5 5 5 5 5 5 5 5 5 5 5 5 5 5 5 5 5 5 5 5 5 5 5 5 5 5 5 5 5 5 5 5 5 5 5 5 5 5 5 5 5 5 5 5 5 5 5 5 5 5 5 5 5 5 5 5 5 5 5 5 5 5 5 5 5 5 5 5 5 5 5 5 5 5 5 5 5 5 5 5 5 5 5 5 5 5 5 5 5 5 5 5 5 5 5 5 5 5 5 5 5 5 5 5 </DataArray>
</Cells>
<PointData  Vectors="Displacement"> 
<DataArray  type="Float64"  Name="Displacement"  NumberOfComponents="3" format="ascii">3.1899539842844646e-04 1.8341239291061120e-04 0.0000000000000000e+00  3.6596323624261718e-04 6.8742514797756127e-05 0.0000000000000000e+00  3.7734257696838677e-04 1.1096339005037947e-04 0.0000000000000000e+00  3.6887005000327651e-04 1.3985830018232740e-04 0.0000000000000000e+00  3.5787283707581233e-04 1.6324450534912713e-04 0.0000000000000000e+00  3.4763004707849158e-04 1.8112046115957095e-04 0.0000000000000000e+00  3.3730432532947015e-04 1.9371270463403199e-04 0.0000000000000000e+00  3.2794638125385116e-04 2.0109544799443564e-04 0.0000000000000000e+00  3.2043745493336872e-04 2.0229554686329311e-04 0.0000000000000000e+00  3.1403746301213631e-04 2.0161923228978422e-04 0.0000000000000000e+00  3.0909511488573787e-04 1.9775915869984373e-04 0.0000000000000000e+00  3.0467571664060734e-04 1.9250281105659303e-04 0.0000000000000000e+00  3.0047157261635734e-04 1.8188838541887876e-04 0.0000000000000000e+00  2.9860713544214014e-04 1.7250564942549346e-04 0.0000000000000000e+00  2.9599532178971495e-04 1.6384454577820086e-04 0.0000000000000000e+00  2.9205724662729869e-04 1.5426609599989522e-04 0.0000000000000000e+00  2.9072389404184512e-04 1.4637373383168028e-04 0.0000000000000000e+00  2.9234087778474342e-04 1.3996782982765243e-04 0.0000000000000000e+00  2.9219879016634519e-04 1.3509894800060160e-04 0.0000000000000000e+00  2.9418436824718395e-04 1.3297837865175940e-04 0.0000000000000000e+00  2.9431870569788268e-04 1.3382756141113198e-04 0.0000000000000000e+00  2.9063019072900009e-04 1.2330465532960975e-04 0.0000000000000000e+00  2.8933951206552003e-04 1.1490212250993060e-04 0.0000000000000000e+00  2.9177831792281825e-04 1.1044639563816991e-04 0.0000000000000000e+00  2.9888794530643254e-04 1.1927926057372078e-04 0.0000000000000000e+00  3.0589300153686748e-04 1.2285763337526194e-04 0.0000000000000000e+00  3.2664392340094419e-04 1.8090519084531961e-04 0.0000000000000000e+00  3.6759943515492796e-04 8.1088528463938469e-05 0.0000000000000000e+00  3.6535424484885779e-04 7.5495731311672876e-05 0.0000000000000000e+00  3.5357444724662954e-04 1.1265753339797954e-04 0.0000000000000000e+00  3.4731418856515691e-04 1.4322104567663794e-04 0.0000000000000000e+00  3.4055392500455532e-04 1.6729723379210463e-04 0.0000000000000000e+00  3.3518353960727056e-04 1.8563832781672864e-04 0.0000000000000000e+00  3.2923555627933302e-04 1.9759778987652341e-04 0.0000000000000000e+00  3.2360447079435686e-04 2.0439442049121362e-04 0.0000000000000000e+00  3.1860075668754947e-04 2.0489671692314380e-04 0.0000000000000000e+00  3.1486941112492616e-04 2.0390663210838734e-04 0.0000000000000000e+00  3.1245191004728470e-04 1.9926924280021157e-04 0.0000000000000000e+00  3.1134696008262066e-04 1.9324764273467997e-04 0.0000000000000000e+00  3.0886551123495191e-04 1.8392161330228938e-04 0.0000000000000000e+00  3.0545729347167608e-04 1.7423885912832868e-04 0.0000000000000000e+00  3.0259400677297042e-04 1.6508999638799706e-04 0.0000000000000000e+00  3.0088212796082356e-04 1.5668730688590677e-04 0.0000000000000000e+00  2.9860744185678472e-04 1.4671595377116427e-04 0.0000000000000000e+00  2.9793214153307540e-04 1.3983699991335500e-04 0.0000000000000000e+00  2.9648183977538483e-04 1.3553986544434496e-04 0.0000000000000000e+00  2.9511904829538136e-04 1.3310149803472693e-04 0.0000000000000000e+00  2.9611159877347389e-04 1.3207826522118854e-04 0.0000000000000000e+00  2.9741989322006903e-04 1.2462689848753426e-04 0.0000000000000000e+00  2.9533241178563623e-04 1.1497118570846164e-04 0.0000000000000000e+00  2.9588591371469279e-04 1.1101417775443409e-04 0.0000000000000000e+00  2.9440681890042250e-04 1.1904028722945188e-04 0.0000000000000000e+00  2.9284358256853057e-04 1.2845128802467659e-04 0.0000000000000000e+00  2.9616112740708480e-04 1.5503190081616109e-04 0.0000000000000000e+00  3.4271689339830799e-04 4.0955640996035483e-05 0.0000000000000000e+00  3.4553241115190496e-04 8.1407424593933934e-05 0.0000000000000000e+00  3.3427157272971302e-04 1.1779974593858912e-04 0.0000000000000000e+00  3.2835930028791375e-04 1.4648193657019733e-04 0.0000000000000000e+00  3.2407626052981850e-04 1.6892343105096261e-04 0.0000000000000000e+00  3.2375622430546160e-04 1.8698792722931357e-04 0.0000000000000000e+00  3.2170184397721161e-04 1.9983456716314978e-04 0.0000000000000000e+00  3.1832957383119486e-04 2.0542019164449844e-04 0.0000000000000000e+00  3.1671802553765593e-04 2.0658792129094394e-04 0.0000000000000000e+00  3.1605909074151114e-04 2.0413160572840705e-04 0.0000000000000000e+00  3.1603568498673258e-04 1.9838310557225989e-04 0.0000000000000000e+00  3.1511102115874644e-04 1.9371958146586612e-04 0.0000000000000000e+00  3.1402051317589434e-04 1.8490753643452763e-04 0.0000000000000000e+00  3.1169184447284295e-04 1.7629637902102056e-04 0.0000000000000000e+00  3.0860040375946642e-04 1.6528188631474963e-04 0.0000000000000000e+00  3.0816482252168318e-04 1.5722967326612001e-04 0.0000000000000000e+00  3.0665706506363856e-04 1.4694241720645713e-04 0.0000000000000000e+00  3.0312666295713182e-04 1.4154713000013268e-04 0.0000000000000000e+00  2.9959045524393301e-04 1.3657128244580648e-04 0.0000000000000000e+00  2.9733788081147058e-04 1.3237124195346163e-04 0.0000000000000000e+00  2.9821805557584226e-04 1.2839445997507028e-04 0.0000000000000000e+00  2.9899845797102289e-04 1.2338689048563465e-04 0.0000000000000000e+00  2.9786911743343681e-04 1.1506601063482225e-04 0.0000000000000000e+00  2.9350399184263669e-04 1.1345720945686596e-04 0.0000000000000000e+00  2.8912714374504058e-04 1.2292847932359493e-04 0.0000000000000000e+00  2.8562203583691159e-04 1.3153046743101225e-04 0.0000000000000000e+00  2.8542370845051183e-04 1.4371897142651630e-04 0.0000000000000000e+00  3.0485016971366831e-04 4.2321583311334336e-06 0.0000000000000000e+00  3.1107692043322619e-04 8.0508719538490716e-05 0.0000000000000000e+00  3.0602137411745285e-04 1.2259564407949915e-04 0.0000000000000000e+00  3.0739718204396741e-04 1.4934645333338441e-04 0.0000000000000000e+00  3.0739432205889740e-04 1.6906066834985757e-04 0.0000000000000000e+00  3.1107859220235156e-04 1.8624018064515918e-04 0.0000000000000000e+00  3.1276804566447925e-04 2.0011084763110737e-04 0.0000000000000000e+00  3.1449764141552888e-04 2.0607261258677914e-04 0.0000000000000000e+00  3.1577917178505306e-04 2.0667760414777705e-04 0.0000000000000000e+00  3.1775073465667355e-04 2.0309979215919530e-04 0.0000000000000000e+00  3.1953172471873426e-04 1.9833977483992273e-04 0.0000000000000000e+00  3.1939853913708061e-04 1.9384714215699419e-04 0.0000000000000000e+00  3.1936800964019841e-04 1.8550064570232685e-04 0.0000000000000000e+00  3.1814341143951056e-04 1.7842952435484678e-04 0.0000000000000000e+00  3.1513574803024590e-04 1.6691176728808209e-04 0.0000000000000000e+00  3.1340852372181840e-04 1.5735650070394062e-04 0.0000000000000000e+00  3.1086009056966244e-04 1.4888136367832434e-04 0.0000000000000000e+00  3.0809101760435398e-04 1.4463418818586369e-04 0.0000000000000000e+00  3.0391004077618035e-04 1.3829227100656751e-04 0.0000000000000000e+00  3.0180804910391265e-04 1.3205255907649369e-04 0.0000000000000000e+00  3.0196392686993040e-04 1.2631888785909128e-04 0.0000000000000000e+00  3.0034331412721058e-04 1.2303733841681892e-04 0.0000000000000000e+00  2.9631839404056201e-04 1.1680622746819709e-04 0.0000000000000000e+00  2.9230542459268466e-04 1.1721469965863187e-04 0.0000000000000000e+00  2.8753174126139764e-04 1.2694722235859318e-04 0.0000000000000000e+00  2.8507897138589893e-04 1.3367006005454609e-04 0.0000000000000000e+00  2.8289398372454794e-04 1.4199404451978494e-04 0.0000000000000000e+00  1.9325632698457152e-04 -9.4134411451838858e-05 0.0000000000000000e+00  2.5136368582408930e-04 7.8530135035900209e-05 0.0000000000000000e+00  2.7571844829627103e-04 1.1975965785027035e-04 0.0000000000000000e+00  2.8570842603140885e-04 1.4677547641011183e-04 0.0000000000000000e+00  2.9159216555333105e-04 1.6648080576145934e-04 0.0000000000000000e+00  2.9667759395412787e-04 1.8357745412680718e-04 0.0000000000000000e+00  3.0375838786846955e-04 1.9703668898312350e-04 0.0000000000000000e+00  3.1106480844889572e-04 2.0468276186781423e-04 0.0000000000000000e+00  3.1604128613808440e-04 2.0531747260762694e-04 0.0000000000000000e+00  3.2004799773811750e-04 2.0101121115798237e-04 0.0000000000000000e+00  3.2341870901892290e-04 1.9768236497198348e-04 0.0000000000000000e+00  3.2453243448358061e-04 1.9327830443078325e-04 0.0000000000000000e+00  3.2551767223925314e-04 1.8576839635492132e-04 0.0000000000000000e+00  3.2422908713388376e-04 1.7934166761660180e-04 0.0000000000000000e+00  3.2349535145862054e-04 1.6909203020582127e-04 0.0000000000000000e+00  3.1869553962877902e-04 1.5825593740071399e-04 0.0000000000000000e+00  3.1523812741325472e-04 1.5042603135128718e-04 0.0000000000000000e+00  3.1146640712604375e-04 1.4628018640254603e-04 0.0000000000000000e+00  3.1175111600650912e-04 1.4027563304604184e-04 0.0000000000000000e+00  3.0700408714297609e-04 1.3252077712105491e-04 0.0000000000000000e+00  3.0459047321522735e-04 1.2683512799136078e-04 0.0000000000000000e+00  3.0154336237805176e-04 1.2404684177631483e-04 0.0000000000000000e+00  2.9809633749517810e-04 1.2048749642219805e-04 0.0000000000000000e+00  2.9054445350576967e-04 1.2045627404279864e-04 0.0000000000000000e+00  2.8706263120321490e-04 1.2875843767355184e-04 0.0000000000000000e+00  2.8342303160328643e-04 1.3700964781079898e-04 0.0000000000000000e+00  2.8285094109450356e-04 1.4406329702837563e-04 0.0000000000000000e+00  </DataArray> 
</PointData> 
</Piece>
</UnstructuredGrid>
</VTKFile>