<?xml version="1.0"?>
<VTKFile type="UnstructuredGrid"  version="0.1"  >
<UnstructuredGrid>
<Piece  NumberOfPoints="135" NumberOfCells="208">
<Points>
<DataArray  type="Float64"  NumberOfComponents="3"  format="ascii">1 1 0  1.076923076923077 1 0  1.153846153846154 1 0  1.230769230769231 1 0  1.307692307692308 1 0  1.384615384615385 1 0  1.461538461538462 1 0  1.538461538461538 1 0  1.615384615384615 1 0  1.692307692307692 1 0  1.769230769230769 1 0  1.846153846153846 1 0  1.923076923076923 1 0  2 1 0  2.076923076923077 1 0  2.153846153846154 1 0  2.230769230769231 1 0  2.307692307692307 1 0  2.384615384615385 1 0  2.461538461538462 1 0  2.538461538461538 1 0  2.615384615384615 1 0  2.692307692307693 1 0  2.769230769230769 1 0  2.846153846153846 1 0  2.923076923076923 1 0  3 1 0  1 1.0625 0  1.076923076923077 1.0625 0  1.153846153846154 1.0625 0  1.230769230769231 1.0625 0  1.307692307692308 1.0625 0  1.384615384615385 1.0625 0  1.461538461538462 1.0625 0  1.538461538461538 1.0625 0  1.615384615384615 1.0625 0  1.692307692307692 1.0625 0  1.769230769230769 1.0625 0  1.846153846153846 1.0625 0  1.923076923076923 1.0625 0  2 1.0625 0  2.076923076923077 1.0625 0  2.153846153846154 1.0625 0  2.230769230769231 1.0625 0  2.307692307692307 1.0625 0  2.384615384615385 1.0625 0  2.461538461538462 1.0625 0  2.538461538461538 1.0625 0  2.615384615384615 1.0625 0  2.692307692307693 1.0625 0  2.769230769230769 1.0625 0  2.846153846153846 1.0625 0  2.923076923076923 1.0625 0  3 1.0625 0  1 1.125 0  1.076923076923077 1.125 0  1.153846153846154 1.125 0  1.230769230769231 1.125 0  1.307692307692308 1.125 0  1.384615384615385 1.125 0  1.461538461538462 1.125 0  1.538461538461538 1.125 0  1.615384615384615 1.125 0  1.692307692307692 1.125 0  1.769230769230769 1.125 0  1.846153846153846 1.125 0  1.923076923076923 1.125 0  2 1.125 0  2.076923076923077 1.125 0  2.153846153846154 1.125 0  2.230769230769231 1.125 0  2.307692307692307 1.125 0  2.384615384615385 1.125 0  2.461538461538462 1.125 0  2.538461538461538 1.125 0  2.615384615384615 1.125 0  2.692307692307693 1.125 0  2.769230769230769 1.125 0  2.846153846153846 1.125 0  2.923076923076923 1.125 0  3 1.125 0  1 1.1875 0  1.076923076923077 1.1875 0  1.153846153846154 1.1875 0  1.230769230769231 1.1875 0  1.307692307692308 1.1875 0  1.384615384615385 1.1875 0  1.461538461538462 1.1875 0  1.538461538461538 1.1875 0  1.615384615384615 1.1875 0  1.692307692307692 1.1875 0  1.769230769230769 1.1875 0  1.846153846153846 1.1875 0  1.923076923076923 1.1875 0  2 1.1875 0  2.076923076923077 1.1875 0  2.153846153846154 1.1875 0  2.230769230769231 1.1875 0  2.307692307692307 1.1875 0  2.384615384615385 1.1875 0  2.461538461538462 1.1875 0  2.538461538461538 1.1875 0  2.615384615384615 1.1875 0  2.692307692307693 1.1875 0  2.769230769230769 1.1875 0  2.846153846153846 1.1875 0  2.923076923076923 1.1875 0  3 1.1875 0  1 1.25 0  1.076923076923077 1.25 0  1.153846153846154 1.25 0  1.230769230769231 1.25 0  1.307692307692308 1.25 0  1.384615384615385 1.25 0  1.461538461538462 1.25 0  1.538461538461538 1.25 0  1.615384615384615 1.25 0  1.692307692307692 1.25 0  1.769230769230769 1.25 0  1.846153846153846 1.25 0  1.923076923076923 1.25 0  2 1.25 0  2.076923076923077 1.25 0  2.153846153846154 1.25 0  2.230769230769231 1.25 0  2.307692307692307 1.25 0  2.384615384615385 1.25 0  2.461538461538462 1.25 0  2.538461538461538 1.25 0  2.615384615384615 1.25 0  2.692307692307693 1.25 0  2.769230769230769 1.25 0  2.846153846153846 1.25 0  2.923076923076923 1.25 0  3 1.25 0  </DataArray>
</Points>
<Cells>
<DataArray  type="UInt32"  Name="connectivity"  format="ascii">0 1 28  0 27 28  1 2 29  1 28 29  2 3 30  2 29 30  3 4 31  3 30 31  4 5 32  4 31 32  5 6 33  5 32 33  6 7 34  6 33 34  7 8 35  7 34 35  8 9 36  8 35 36  9 10 37  9 36 37  10 11 38  10 37 38  11 12 39  11 38 39  12 13 40  12 39 40  13 14 41  13 40 41  14 15 42  14 41 42  15 16 43  15 42 43  16 17 44  16 43 44  17 18 45  17 44 45  18 19 46  18 45 46  19 20 47  19 46 47  20 21 48  20 47 48  21 22 49  21 48 49  22 23 50  22 49 50  23 24 51  23 50 51  24 25 52  24 51 52  25 26 53  25 52 53  27 28 55  27 54 55  28 29 56  28 55 56  29 30 57  29 56 57  30 31 58  30 57 58  31 32 59  31 58 59  32 33 60  32 59 60  33 34 61  33 60 61  34 35 62  34 61 62  35 36 63  35 62 63  36 37 64  36 63 64  37 38 65  37 64 65  38 39 66  38 65 66  39 40 67  39 66 67  40 41 68  40 67 68  41 42 69  41 68 69  42 43 70  42 69 70  43 44 71  43 70 71  44 45 72  44 71 72  45 46 73  45 72 73  46 47 74  46 73 74  47 48 75  47 74 75  48 49 76  48 75 76  49 50 77  49 76 77  50 51 78  50 77 78  51 52 79  51 78 79  52 53 80  52 79 80  54 55 82  54 81 82  55 56 83  55 82 83  56 57 84  56 83 84  57 58 85  57 84 85  58 59 86  58 85 86  59 60 87  59 86 87  60 61 88  60 87 88  61 62 89  61 88 89  62 63 90  62 89 90  63 64 91  63 90 91  64 65 92  64 91 92  65 66 93  65 92 93  66 67 94  66 93 94  67 68 95  67 94 95  68 69 96  68 95 96  69 70 97  69 96 97  70 71 98  70 97 98  71 72 99  71 98 99  72 73 100  72 99 100  73 74 101  73 100 101  74 75 102  74 101 102  75 76 103  75 102 103  76 77 104  76 103 104  77 78 105  77 104 105  78 79 106  78 105 106  79 80 107  79 106 107  81 82 109  81 108 109  82 83 110  82 109 110  83 84 111  83 110 111  84 85 112  84 111 112  85 86 113  85 112 113  86 87 114  86 113 114  87 88 115  87 114 115  88 89 116  88 115 116  89 90 117  89 116 117  90 91 118  90 117 118  91 92 119  91 118 119  92 93 120  92 119 120  93 94 121  93 120 121  94 95 122  94 121 122  95 96 123  95 122 123  96 97 124  96 123 124  97 98 125  97 124 125  98 99 126  98 125 126  99 100 127  99 126 127  100 101 128  100 127 128  101 102 129  101 128 129  102 103 130  102 129 130  103 104 131  103 130 131  104 105 132  104 131 132  105 106 133  105 132 133  106 107 134  106 133 134  </DataArray>
<DataArray  type="UInt32"  Name="offsets"  format="ascii">3 6 9 12 15 18 21 24 27 30 33 36 39 42 45 48 51 54 57 60 63 66 69 72 75 78 81 84 87 90 93 96 99 102 105 108 111 114 117 120 123 126 129 132 135 138 141 144 147 150 153 156 159 162 165 168 171 174 177 180 183 186 189 192 195 198 201 204 207 210 213 216 219 222 225 228 231 234 237 240 243 246 249 252 255 258 261 264 267 270 273 276 279 282 285 288 291 294 297 300 303 306 309 312 315 318 321 324 327 330 333 336 339 342 345 348 351 354 357 360 363 366 369 372 375 378 381 384 387 390 393 396 399 402 405 408 411 414 417 420 423 426 429 432 435 438 441 444 447 450 453 456 459 462 465 468 471 474 477 480 483 486 489 492 495 498 501 504 507 510 513 516 519 522 525 528 531 534 537 540 543 546 549 552 555 558 561 564 567 570 573 576 579 582 585 588 591 594 597 600 603 606 609 612 615 618 621 624 </DataArray>
<DataArray  type="UInt8"  Name="types"  format="ascii">5 5 5 5 5 5 5 5 5 5 5 5 5 5 5 5 5 5 5 5 5 5 5 5 5 5 5 5 5 5 5 5 5 5 5 5 5 5 5 5 5 5 5 5 5 5 5 5 5 5 5 5 5 5 5 5 5 5 5 5 5 5 5 5 5 5 5 5 5 5 5 5 5 5 5 5 5 5 5 5 5 5 5 5 5 5 5 5 5 5 5 5 5 5 5 5 5 5 5 5 5 5 5 5 5 5 5 5 5 5 5 5 5 5 5 5 5 5 5 5 5 5 5 5 5 5 5 5 5 5 5 5 5 5 5 5 5 5 5 5 5 5 5 5 5 5 5 5 5 5 5 5 5 5 5 5 5 5 5 5 5 5 5 5 5 5 5 5 5 5 5 5 5 5 5 5 5 5 5 5 5 5 5 5 5 5 5 5 5 5 5 5 5 5 5 5 5 5 5 5 5 5 5 5 5 5 5 5 </DataArray>
</Cells>
<PointData  Vectors="Displacement"> 
<DataArray  type="Float64"  Name="Displacement"  NumberOfComponents="3" format="ascii">6.8064427846234465e-04 1.5229048152621112e-04 0.0000000000000000e+00  7.2816316909173106e-04 6.1810901579180852e-05 0.0000000000000000e+00  7.4267806495639289e-04 1.1748455659777445e-04 0.0000000000000000e+00  7.3236008971596690e-04 1.6526510857038223e-04 0.0000000000000000e+00  7.1710753101482275e-04 1.9992092876623888e-04 0.0000000000000000e+00  7.0291048934223639e-04 2.2677519363730760e-04 0.0000000000000000e+00  6.8779143423844153e-04 2.4900822562882053e-04 0.0000000000000000e+00  6.7284908380619820e-04 2.6068028834593275e-04 0.0000000000000000e+00  6.6101738844095558e-04 2.6815940203861363e-04 0.0000000000000000e+00  6.4759427791706342e-04 2.7086431311666769e-04 0.0000000000000000e+00  6.3562704785205765e-04 2.6958419794793936e-04 0.0000000000000000e+00  6.2632476703216688e-04 2.6504182472001769e-04 0.0000000000000000e+00  6.2022788732598807e-04 2.5841651623055399e-04 0.0000000000000000e+00  6.1469868368510669e-04 2.4977149435911227e-04 0.0000000000000000e+00  6.0961418734928265e-04 2.4241390969595994e-04 0.0000000000000000e+00  6.0595800823092687e-04 2.3269704835478239e-04 0.0000000000000000e+00  6.0082900463286439e-04 2.2630087886393228e-04 0.0000000000000000e+00  5.9642254200388371e-04 2.1553146016819693e-04 0.0000000000000000e+00  5.9570075689820091e-04 2.0656372763139258e-04 0.0000000000000000e+00  5.9514641777002502e-04 2.0323479792822913e-04 0.0000000000000000e+00  5.9504782515135721e-04 2.0179787887192308e-04 0.0000000000000000e+00  5.9471612955703157e-04 2.0130763503717637e-04 0.0000000000000000e+00  5.9492902734189471e-04 2.0151326820130912e-04 0.0000000000000000e+00  5.9570139447953359e-04 2.0501433237749852e-04 0.0000000000000000e+00  5.9768986458166558e-04 2.1313875860127509e-04 0.0000000000000000e+00  6.0464215051394415e-04 2.1723431260918356e-04 0.0000000000000000e+00  6.2426238924789910e-04 2.8001040281421744e-04 0.0000000000000000e+00  7.1414889856857790e-04 5.4119049019650753e-05 0.0000000000000000e+00  7.1570961359237887e-04 6.4784558241904873e-05 0.0000000000000000e+00  7.0630803507551747e-04 1.1847471844688996e-04 0.0000000000000000e+00  6.9773411901703547e-04 1.6870889433770675e-04 0.0000000000000000e+00  6.9116992893361888e-04 2.0463339246801982e-04 0.0000000000000000e+00  6.8178341165095783e-04 2.3277641069209562e-04 0.0000000000000000e+00  6.7257797134726623e-04 2.5546698519359574e-04 0.0000000000000000e+00  6.6352634273779854e-04 2.6608678568498280e-04 0.0000000000000000e+00  6.5490192154642971e-04 2.7376509735637576e-04 0.0000000000000000e+00  6.4552691244511556e-04 2.7802003922200788e-04 0.0000000000000000e+00  6.3609384106388662e-04 2.7480038612324195e-04 0.0000000000000000e+00  6.3025991981404805e-04 2.6877396244809050e-04 0.0000000000000000e+00  6.2623633246549520e-04 2.6133147963133043e-04 0.0000000000000000e+00  6.2075873167348624e-04 2.5411474570534979e-04 0.0000000000000000e+00  6.1641955970344103e-04 2.4507970879837447e-04 0.0000000000000000e+00  6.1136459438508952e-04 2.3590825114948541e-04 0.0000000000000000e+00  6.0805298885211400e-04 2.2889580191580241e-04 0.0000000000000000e+00  6.0502726521205008e-04 2.1722942470902174e-04 0.0000000000000000e+00  6.0241170168782662e-04 2.0823202245052363e-04 0.0000000000000000e+00  6.0006139360128117e-04 2.0426647735521282e-04 0.0000000000000000e+00  5.9844892672323939e-04 2.0239184708207029e-04 0.0000000000000000e+00  5.9738448996253166e-04 2.0248581839304582e-04 0.0000000000000000e+00  5.9444898840360302e-04 2.0305871334035786e-04 0.0000000000000000e+00  5.9276416227792945e-04 2.0641586879437937e-04 0.0000000000000000e+00  5.9241069004232398e-04 2.1212492197999929e-04 0.0000000000000000e+00  5.9110389080955996e-04 2.2523538080711615e-04 0.0000000000000000e+00  5.9222999804483156e-04 2.5243543527192730e-04 0.0000000000000000e+00  6.7684822079506970e-04 1.1287952461545588e-05 0.0000000000000000e+00  6.8244174941903496e-04 6.8964230043779245e-05 0.0000000000000000e+00  6.7351575520343914e-04 1.2348988245281688e-04 0.0000000000000000e+00  6.6652369850112925e-04 1.7170040793216784e-04 0.0000000000000000e+00  6.6454976681880665e-04 2.0752152753201057e-04 0.0000000000000000e+00  6.6012846806614786e-04 2.3631130125776616e-04 0.0000000000000000e+00  6.5775453901631702e-04 2.5894560266070943e-04 0.0000000000000000e+00  6.5304606134878619e-04 2.6992334393165191e-04 0.0000000000000000e+00  6.4693387675337230e-04 2.7785094198114896e-04 0.0000000000000000e+00  6.4236981334677551e-04 2.8124974454125782e-04 0.0000000000000000e+00  6.3707172734276925e-04 2.7822447005224500e-04 0.0000000000000000e+00  6.3383096781454990e-04 2.7103120221651673e-04 0.0000000000000000e+00  6.2921536223365044e-04 2.6363824379057287e-04 0.0000000000000000e+00  6.2579993189298304e-04 2.5698546464529961e-04 0.0000000000000000e+00  6.2215246989436165e-04 2.4770784456144693e-04 0.0000000000000000e+00  6.1668034596069822e-04 2.3862175815083311e-04 0.0000000000000000e+00  6.1384258473665501e-04 2.3079078409354883e-04 0.0000000000000000e+00  6.0995189001485670e-04 2.1848451059799085e-04 0.0000000000000000e+00  6.0669370527994247e-04 2.1028930556189955e-04 0.0000000000000000e+00  6.0310825410749133e-04 2.0558021494151320e-04 0.0000000000000000e+00  6.0074144586369190e-04 2.0372204289907151e-04 0.0000000000000000e+00  5.9789780241896885e-04 2.0377594260171145e-04 0.0000000000000000e+00  5.9381510385826013e-04 2.0521931046438454e-04 0.0000000000000000e+00  5.8895985215145802e-04 2.0831071034903547e-04 0.0000000000000000e+00  5.8532754593833692e-04 2.1431945475832277e-04 0.0000000000000000e+00  5.8380991730340003e-04 2.2715360016973077e-04 0.0000000000000000e+00  5.8481397444957799e-04 2.4178815258356150e-04 0.0000000000000000e+00  6.2333815814102867e-04 -2.8027773786883002e-05 0.0000000000000000e+00  6.3403969318937177e-04 6.6163244596893029e-05 0.0000000000000000e+00  6.3315273066965054e-04 1.2769449128791015e-04 0.0000000000000000e+00  6.3262052324014682e-04 1.7172239853132602e-04 0.0000000000000000e+00  6.3612701023484390e-04 2.0765334135196920e-04 0.0000000000000000e+00  6.3808123539096505e-04 2.3649869867557608e-04 0.0000000000000000e+00  6.4120974232594573e-04 2.5852052275402381e-04 0.0000000000000000e+00  6.4146555677078499e-04 2.7173062834425459e-04 0.0000000000000000e+00  6.4140492924511666e-04 2.7936380641627900e-04 0.0000000000000000e+00  6.4055728488645225e-04 2.8256566770584420e-04 0.0000000000000000e+00  6.3873157222878315e-04 2.7932911799579611e-04 0.0000000000000000e+00  6.3645609740107763e-04 2.7257011578113032e-04 0.0000000000000000e+00  6.3234945628483992e-04 2.6633769785283445e-04 0.0000000000000000e+00  6.2962239369922972e-04 2.5714566705559849e-04 0.0000000000000000e+00  6.2774228215132719e-04 2.5030914940883697e-04 0.0000000000000000e+00  6.2217152787170829e-04 2.4109948159221141e-04 0.0000000000000000e+00  6.1894983761517062e-04 2.3164437602145492e-04 0.0000000000000000e+00  6.1544092893150635e-04 2.2034755634286216e-04 0.0000000000000000e+00  6.1083350785708058e-04 2.1283862494547566e-04 0.0000000000000000e+00  6.0627859576743823e-04 2.0645297271440255e-04 0.0000000000000000e+00  6.0113914494555425e-04 2.0519573284553190e-04 0.0000000000000000e+00  5.9701169642218158e-04 2.0572305165284622e-04 0.0000000000000000e+00  5.9159076660628704e-04 2.0815226888889514e-04 0.0000000000000000e+00  5.8608236414405901e-04 2.1096342421088443e-04 0.0000000000000000e+00  5.8127182417927101e-04 2.1625155637756917e-04 0.0000000000000000e+00  5.7831165573451950e-04 2.2633640371724052e-04 0.0000000000000000e+00  5.7932553507405982e-04 2.3753281814396283e-04 0.0000000000000000e+00  5.0049980967081212e-04 -1.2355851517185750e-04 0.0000000000000000e+00  5.6190488768811660e-04 6.1457579715471148e-05 0.0000000000000000e+00  5.8702275771602369e-04 1.2496356168377918e-04 0.0000000000000000e+00  5.9967067944121950e-04 1.6914729356687673e-04 0.0000000000000000e+00  6.0825482368578833e-04 2.0445460821780985e-04 0.0000000000000000e+00  6.1786852781504464e-04 2.3382082719350603e-04 0.0000000000000000e+00  6.2476331465499755e-04 2.5595467923746984e-04 0.0000000000000000e+00  6.3255456350857575e-04 2.7087855338455948e-04 0.0000000000000000e+00  6.3657972496422273e-04 2.7906673062849609e-04 0.0000000000000000e+00  6.3917041404043084e-04 2.8212114502072663e-04 0.0000000000000000e+00  6.4112937843193395e-04 2.8031970370246659e-04 0.0000000000000000e+00  6.4022354532022332e-04 2.7426699085404785e-04 0.0000000000000000e+00  6.3746311397285872e-04 2.6919604173729393e-04 0.0000000000000000e+00  6.3511686294248789e-04 2.5827774906346279e-04 0.0000000000000000e+00  6.3142765324123958e-04 2.5203669725183165e-04 0.0000000000000000e+00  6.2937482655663795e-04 2.4392325633312178e-04 0.0000000000000000e+00  6.2635785633177092e-04 2.3310108168566969e-04 0.0000000000000000e+00  6.2256444725942333e-04 2.2348438133210053e-04 0.0000000000000000e+00  6.1652094255934986e-04 2.1579206640457750e-04 0.0000000000000000e+00  6.0919806979338887e-04 2.0977680306199175e-04 0.0000000000000000e+00  6.0186055118746900e-04 2.0863207528471321e-04 0.0000000000000000e+00  5.9524872692980014e-04 2.0899837301494224e-04 0.0000000000000000e+00  5.8863045555307501e-04 2.1112438649782591e-04 0.0000000000000000e+00  5.8365101991617388e-04 2.1428867858387242e-04 0.0000000000000000e+00  5.7738755505584184e-04 2.1890164844945784e-04 0.0000000000000000e+00  5.7337227668112414e-04 2.2641941409645770e-04 0.0000000000000000e+00  5.7202003482096861e-04 2.3670702665371839e-04 0.0000000000000000e+00  </DataArray> 
</PointData> 
</Piece>
</UnstructuredGrid>
</VTKFile>