<?xml version="1.0"?>
<VTKFile type="UnstructuredGrid"  version="0.1"  >
<UnstructuredGrid>
<Piece  NumberOfPoints="135" NumberOfCells="208">
<Points>
<DataArray  type="Float64"  NumberOfComponents="3"  format="ascii">1 1 0  1.076923076923077 1 0  1.153846153846154 1 0  1.230769230769231 1 0  1.307692307692308 1 0  1.384615384615385 1 0  1.461538461538462 1 0  1.538461538461538 1 0  1.615384615384615 1 0  1.692307692307692 1 0  1.769230769230769 1 0  1.846153846153846 1 0  1.923076923076923 1 0  2 1 0  2.076923076923077 1 0  2.153846153846154 1 0  2.230769230769231 1 0  2.307692307692307 1 0  2.384615384615385 1 0  2.461538461538462 1 0  2.538461538461538 1 0  2.615384615384615 1 0  2.692307692307693 1 0  2.769230769230769 1 0  2.846153846153846 1 0  2.923076923076923 1 0  3 1 0  1 1.0625 0  1.076923076923077 1.0625 0  1.153846153846154 1.0625 0  1.230769230769231 1.0625 0  1.307692307692308 1.0625 0  1.384615384615385 1.0625 0  1.461538461538462 1.0625 0  1.538461538461538 1.0625 0  1.615384615384615 1.0625 0  1.692307692307692 1.0625 0  1.769230769230769 1.0625 0  1.846153846153846 1.0625 0  1.923076923076923 1.0625 0  2 1.0625 0  2.076923076923077 1.0625 0  2.153846153846154 1.0625 0  2.230769230769231 1.0625 0  2.307692307692307 1.0625 0  2.384615384615385 1.0625 0  2.461538461538462 1.0625 0  2.538461538461538 1.0625 0  2.615384615384615 1.0625 0  2.692307692307693 1.0625 0  2.769230769230769 1.0625 0  2.846153846153846 1.0625 0  2.923076923076923 1.0625 0  3 1.0625 0  1 1.125 0  1.076923076923077 1.125 0  1.153846153846154 1.125 0  1.230769230769231 1.125 0  1.307692307692308 1.125 0  1.384615384615385 1.125 0  1.461538461538462 1.125 0  1.538461538461538 1.125 0  1.615384615384615 1.125 0  1.692307692307692 1.125 0  1.769230769230769 1.125 0  1.846153846153846 1.125 0  1.923076923076923 1.125 0  2 1.125 0  2.076923076923077 1.125 0  2.153846153846154 1.125 0  2.230769230769231 1.125 0  2.307692307692307 1.125 0  2.384615384615385 1.125 0  2.461538461538462 1.125 0  2.538461538461538 1.125 0  2.615384615384615 1.125 0  2.692307692307693 1.125 0  2.769230769230769 1.125 0  2.846153846153846 1.125 0  2.923076923076923 1.125 0  3 1.125 0  1 1.1875 0  1.076923076923077 1.1875 0  1.153846153846154 1.1875 0  1.230769230769231 1.1875 0  1.307692307692308 1.1875 0  1.384615384615385 1.1875 0  1.461538461538462 1.1875 0  1.538461538461538 1.1875 0  1.615384615384615 1.1875 0  1.692307692307692 1.1875 0  1.769230769230769 1.1875 0  1.846153846153846 1.1875 0  1.923076923076923 1.1875 0  2 1.1875 0  2.076923076923077 1.1875 0  2.153846153846154 1.1875 0  2.230769230769231 1.1875 0  2.307692307692307 1.1875 0  2.384615384615385 1.1875 0  2.461538461538462 1.1875 0  2.538461538461538 1.1875 0  2.615384615384615 1.1875 0  2.692307692307693 1.1875 0  2.769230769230769 1.1875 0  2.846153846153846 1.1875 0  2.923076923076923 1.1875 0  3 1.1875 0  1 1.25 0  1.076923076923077 1.25 0  1.153846153846154 1.25 0  1.230769230769231 1.25 0  1.307692307692308 1.25 0  1.384615384615385 1.25 0  1.461538461538462 1.25 0  1.538461538461538 1.25 0  1.615384615384615 1.25 0  1.692307692307692 1.25 0  1.769230769230769 1.25 0  1.846153846153846 1.25 0  1.923076923076923 1.25 0  2 1.25 0  2.076923076923077 1.25 0  2.153846153846154 1.25 0  2.230769230769231 1.25 0  2.307692307692307 1.25 0  2.384615384615385 1.25 0  2.461538461538462 1.25 0  2.538461538461538 1.25 0  2.615384615384615 1.25 0  2.692307692307693 1.25 0  2.769230769230769 1.25 0  2.846153846153846 1.25 0  2.923076923076923 1.25 0  3 1.25 0  </DataArray>
</Points>
<Cells>
<DataArray  type="UInt32"  Name="connectivity"  format="ascii">0 1 28  0 27 28  1 2 29  1 28 29  2 3 30  2 29 30  3 4 31  3 30 31  4 5 32  4 31 32  5 6 33  5 32 33  6 7 34  6 33 34  7 8 35  7 34 35  8 9 36  8 35 36  9 10 37  9 36 37  10 11 38  10 37 38  11 12 39  11 38 39  12 13 40  12 39 40  13 14 41  13 40 41  14 15 42  14 41 42  15 16 43  15 42 43  16 17 44  16 43 44  17 18 45  17 44 45  18 19 46  18 45 46  19 20 47  19 46 47  20 21 48  20 47 48  21 22 49  21 48 49  22 23 50  22 49 50  23 24 51  23 50 51  24 25 52  24 51 52  25 26 53  25 52 53  27 28 55  27 54 55  28 29 56  28 55 56  29 30 57  29 56 57  30 31 58  30 57 58  31 32 59  31 58 59  32 33 60  32 59 60  33 34 61  33 60 61  34 35 62  34 61 62  35 36 63  35 62 63  36 37 64  36 63 64  37 38 65  37 64 65  38 39 66  38 65 66  39 40 67  39 66 67  40 41 68  40 67 68  41 42 69  41 68 69  42 43 70  42 69 70  43 44 71  43 70 71  44 45 72  44 71 72  45 46 73  45 72 73  46 47 74  46 73 74  47 48 75  47 74 75  48 49 76  48 75 76  49 50 77  49 76 77  50 51 78  50 77 78  51 52 79  51 78 79  52 53 80  52 79 80  54 55 82  54 81 82  55 56 83  55 82 83  56 57 84  56 83 84  57 58 85  57 84 85  58 59 86  58 85 86  59 60 87  59 86 87  60 61 88  60 87 88  61 62 89  61 88 89  62 63 90  62 89 90  63 64 91  63 90 91  64 65 92  64 91 92  65 66 93  65 92 93  66 67 94  66 93 94  67 68 95  67 94 95  68 69 96  68 95 96  69 70 97  69 96 97  70 71 98  70 97 98  71 72 99  71 98 99  72 73 100  72 99 100  73 74 101  73 100 101  74 75 102  74 101 102  75 76 103  75 102 103  76 77 104  76 103 104  77 78 105  77 104 105  78 79 106  78 105 106  79 80 107  79 106 107  81 82 109  81 108 109  82 83 110  82 109 110  83 84 111  83 110 111  84 85 112  84 111 112  85 86 113  85 112 113  86 87 114  86 113 114  87 88 115  87 114 115  88 89 116  88 115 116  89 90 117  89 116 117  90 91 118  90 117 118  91 92 119  91 118 119  92 93 120  92 119 120  93 94 121  93 120 121  94 95 122  94 121 122  95 96 123  95 122 123  96 97 124  96 123 124  97 98 125  97 124 125  98 99 126  98 125 126  99 100 127  99 126 127  100 101 128  100 127 128  101 102 129  101 128 129  102 103 130  102 129 130  103 104 131  103 130 131  104 105 132  104 131 132  105 106 133  105 132 133  106 107 134  106 133 134  </DataArray>
<DataArray  type="UInt32"  Name="offsets"  format="ascii">3 6 9 12 15 18 21 24 27 30 33 36 39 42 45 48 51 54 57 60 63 66 69 72 75 78 81 84 87 90 93 96 99 102 105 108 111 114 117 120 123 126 129 132 135 138 141 144 147 150 153 156 159 162 165 168 171 174 177 180 183 186 189 192 195 198 201 204 207 210 213 216 219 222 225 228 231 234 237 240 243 246 249 252 255 258 261 264 267 270 273 276 279 282 285 288 291 294 297 300 303 306 309 312 315 318 321 324 327 330 333 336 339 342 345 348 351 354 357 360 363 366 369 372 375 378 381 384 387 390 393 396 399 402 405 408 411 414 417 420 423 426 429 432 435 438 441 444 447 450 453 456 459 462 465 468 471 474 477 480 483 486 489 492 495 498 501 504 507 510 513 516 519 522 525 528 531 534 537 540 543 546 549 552 555 558 561 564 567 570 573 576 579 582 585 588 591 594 597 600 603 606 609 612 615 618 621 624 </DataArray>
<DataArray  type="UInt8"  Name="types"  format="ascii">5 5 5 5 5 5 5 5 5 5 5 5 5 5 5 5 5 5 5 5 5 5 5 5 5 5 5 5 5 5 5 5 5 5 5 5 5 5 5 5 5 5 5 5 5 5 5 5 5 5 5 5 5 5 5 5 5 5 5 5 5 5 5 5 5 5 5 5 5 5 5 5 5 5 5 5 5 5 5 5 5 5 5 5 5 5 5 5 5 5 5 5 5 5 5 5 5 5 5 5 5 5 5 5 5 5 5 5 5 5 5 5 5 5 5 5 5 5 5 5 5 5 5 5 5 5 5 5 5 5 5 5 5 5 5 5 5 5 5 5 5 5 5 5 5 5 5 5 5 5 5 5 5 5 5 5 5 5 5 5 5 5 5 5 5 5 5 5 5 5 5 5 5 5 5 5 5 5 5 5 5 5 5 5 5 5 5 5 5 5 5 5 5 5 5 5 5 5 5 5 5 5 5 5 5 5 5 5 </DataArray>
</Cells>
<PointData  Vectors="Displacement"> 
<DataArray  type="Float64"  Name="Displacement"  NumberOfComponents="3" format="ascii">1.7612913532301101e-04 1.7119858094445154e-04 0.0000000000000000e+00  2.1672352835476705e-04 6.5716477681073847e-05 0.0000000000000000e+00  2.2769580246033200e-04 9.3225013233269951e-05 0.0000000000000000e+00  2.1931704092546876e-04 1.1260873097044393e-04 0.0000000000000000e+00  2.0663099558008026e-04 1.2499556030497763e-04 0.0000000000000000e+00  1.9113025534411385e-04 1.3245901976665365e-04 0.0000000000000000e+00  1.7742878762103131e-04 1.3312540591213645e-04 0.0000000000000000e+00  1.6387621445883321e-04 1.3051296853399186e-04 0.0000000000000000e+00  1.5268280715599394e-04 1.2790134353721003e-04 0.0000000000000000e+00  1.4299837722536363e-04 1.2888241937116676e-04 0.0000000000000000e+00  1.3647836070761860e-04 1.3659711796920311e-04 0.0000000000000000e+00  1.2680265160639189e-04 1.3981984028884443e-04 0.0000000000000000e+00  1.1695983856201210e-04 1.2999137946535062e-04 0.0000000000000000e+00  1.1196015941516972e-04 1.1727881030656814e-04 0.0000000000000000e+00  1.1177721057835415e-04 1.0830411956292988e-04 0.0000000000000000e+00  1.0984519485239429e-04 1.0919941201705906e-04 0.0000000000000000e+00  1.0206072288764313e-04 9.9875537138679484e-05 0.0000000000000000e+00  9.7169661154790506e-05 9.0013804857793891e-05 0.0000000000000000e+00  8.9146664159360528e-05 8.3910486300459375e-05 0.0000000000000000e+00  8.6538393228307220e-05 7.7189292602298736e-05 0.0000000000000000e+00  8.4117735886255247e-05 7.2274924463640506e-05 0.0000000000000000e+00  7.9180960577018532e-05 6.7545837493101309e-05 0.0000000000000000e+00  7.2758743816486171e-05 6.1607079797009503e-05 0.0000000000000000e+00  7.3172094760802717e-05 6.2872811515082255e-05 0.0000000000000000e+00  7.1918038428054628e-05 6.5505500532120895e-05 0.0000000000000000e+00  7.6120126131468574e-05 6.5282389033040702e-05 0.0000000000000000e+00  9.0096058021485212e-05 1.1297531797692963e-04 0.0000000000000000e+00  2.2510426919627145e-04 8.2391565941832112e-05 0.0000000000000000e+00  2.2171056359026378e-04 6.9427644364091067e-05 0.0000000000000000e+00  2.1230099206034011e-04 9.3086589220385465e-05 0.0000000000000000e+00  2.0432493119009956e-04 1.1543106632137493e-04 0.0000000000000000e+00  1.9531566631377648e-04 1.3003519783722568e-04 0.0000000000000000e+00  1.8503010635179131e-04 1.3796205555138176e-04 0.0000000000000000e+00  1.7484134452758337e-04 1.3928545549426067e-04 0.0000000000000000e+00  1.6398617132985812e-04 1.3623771195055099e-04 0.0000000000000000e+00  1.5280208919882636e-04 1.3359394959315760e-04 0.0000000000000000e+00  1.4151261118734300e-04 1.3421236641684238e-04 0.0000000000000000e+00  1.3319338054167075e-04 1.3908649225644604e-04 0.0000000000000000e+00  1.2857940433915981e-04 1.4285683195462082e-04 0.0000000000000000e+00  1.2512357490897626e-04 1.3256578084613394e-04 0.0000000000000000e+00  1.2378925380018970e-04 1.1895533476409524e-04 0.0000000000000000e+00  1.1835481373459422e-04 1.1059258539877088e-04 0.0000000000000000e+00  1.1171409880430814e-04 1.0897762657347785e-04 0.0000000000000000e+00  1.0894183185061216e-04 1.0219425570369082e-04 0.0000000000000000e+00  1.0158701614747310e-04 9.1297072990329794e-05 0.0000000000000000e+00  9.7794701583820776e-05 8.6128040778066632e-05 0.0000000000000000e+00  9.0951574129849149e-05 7.7136352853786528e-05 0.0000000000000000e+00  8.7187988099902576e-05 7.4142481297527070e-05 0.0000000000000000e+00  8.3721271241355487e-05 7.0588029218742452e-05 0.0000000000000000e+00  7.7051799151095984e-05 6.4373380549323419e-05 0.0000000000000000e+00  7.3480841108914324e-05 6.4037080266484062e-05 0.0000000000000000e+00  7.1935526619603456e-05 6.4591940708153307e-05 0.0000000000000000e+00  6.9686281886000717e-05 7.0977851796626934e-05 0.0000000000000000e+00  6.7925345904056250e-05 9.0142845400724637e-05 0.0000000000000000e+00  2.0885045202005220e-04 4.7287810385300894e-05 0.0000000000000000e+00  2.1204516506128499e-04 7.4125034060109468e-05 0.0000000000000000e+00  2.0131671270433996e-04 9.8648713490855015e-05 0.0000000000000000e+00  1.9324078091293166e-04 1.1956472928164237e-04 0.0000000000000000e+00  1.8632396686492727e-04 1.3497126616844436e-04 0.0000000000000000e+00  1.7963051533749375e-04 1.4317403834750143e-04 0.0000000000000000e+00  1.7157554762155914e-04 1.4362073374985573e-04 0.0000000000000000e+00  1.6359188315423240e-04 1.4181262408053123e-04 0.0000000000000000e+00  1.5344677983674819e-04 1.4033842460351399e-04 0.0000000000000000e+00  1.4310976963550866e-04 1.4041793357870709e-04 0.0000000000000000e+00  1.3437279586043350e-04 1.4163726897858660e-04 0.0000000000000000e+00  1.3200144833378167e-04 1.4338025879823027e-04 0.0000000000000000e+00  1.3143847555613023e-04 1.3447337324204602e-04 0.0000000000000000e+00  1.2978965092234757e-04 1.2111815793860393e-04 0.0000000000000000e+00  1.2642629071235611e-04 1.1629908109290734e-04 0.0000000000000000e+00  1.1957865282140333e-04 1.1188522201241858e-04 0.0000000000000000e+00  1.1420668903062010e-04 1.0563871479504849e-04 0.0000000000000000e+00  1.0515028065960928e-04 9.3000476975458110e-05 0.0000000000000000e+00  1.0128884944437501e-04 8.7070885784486821e-05 0.0000000000000000e+00  9.5316079024189705e-05 8.0318071729154503e-05 0.0000000000000000e+00  8.9333562807053464e-05 7.6684896988119252e-05 0.0000000000000000e+00  8.4752871688183878e-05 7.2581971635444427e-05 0.0000000000000000e+00  7.8520827554959036e-05 6.9202460705744678e-05 0.0000000000000000e+00  7.5477573660598851e-05 6.5800167703043049e-05 0.0000000000000000e+00  7.0800605147461885e-05 6.7080308404610106e-05 0.0000000000000000e+00  6.6782571874972045e-05 7.3907873907904520e-05 0.0000000000000000e+00  6.6455925430126790e-05 8.4802003675026218e-05 0.0000000000000000e+00  1.8185316740929283e-04 1.2788952440695621e-05 0.0000000000000000e+00  1.8738364987356285e-04 7.2637947092198249e-05 0.0000000000000000e+00  1.8211719263063332e-04 1.0368412455268962e-04 0.0000000000000000e+00  1.7874852106404467e-04 1.2217716715128858e-04 0.0000000000000000e+00  1.7605385731884996e-04 1.3743430708448103e-04 0.0000000000000000e+00  1.7187204946200475e-04 1.4507975755710092e-04 0.0000000000000000e+00  1.6840277356345817e-04 1.4591575840812324e-04 0.0000000000000000e+00  1.6243289662303928e-04 1.4481673144666352e-04 0.0000000000000000e+00  1.5364056551786341e-04 1.4467478120100980e-04 0.0000000000000000e+00  1.4576868396323374e-04 1.4389264127524844e-04 0.0000000000000000e+00  1.3923382093543590e-04 1.4280032449742795e-04 0.0000000000000000e+00  1.3634485542684901e-04 1.4228209870460962e-04 0.0000000000000000e+00  1.3654645990397594e-04 1.3370360048320341e-04 0.0000000000000000e+00  1.3604747119346300e-04 1.2244651507487654e-04 0.0000000000000000e+00  1.3201267132753171e-04 1.1721467862862806e-04 0.0000000000000000e+00  1.2675459594325270e-04 1.1499900884259667e-04 0.0000000000000000e+00  1.1806302547882026e-04 1.0865980114116585e-04 0.0000000000000000e+00  1.0803217897526542e-04 9.5549196614796902e-05 0.0000000000000000e+00  1.0203666227160829e-04 8.6093235924239242e-05 0.0000000000000000e+00  9.7390239221146541e-05 8.0816694387904795e-05 0.0000000000000000e+00  9.4530440058494274e-05 7.7418204176473522e-05 0.0000000000000000e+00  8.8524700410478959e-05 7.5555239658172015e-05 0.0000000000000000e+00  8.0912036674939711e-05 7.2136909256896936e-05 0.0000000000000000e+00  7.4161706521506525e-05 6.9075440501242482e-05 0.0000000000000000e+00  6.8153931316136348e-05 7.1213345608344295e-05 0.0000000000000000e+00  6.4783150859787207e-05 7.5287029970413466e-05 0.0000000000000000e+00  6.3602946645164308e-05 8.0290777357382883e-05 0.0000000000000000e+00  9.2726074505856704e-05 -7.2187295737697520e-05 0.0000000000000000e+00  1.4213058380679134e-04 7.0882628439617988e-05 0.0000000000000000e+00  1.5944370746482815e-04 1.0260937651571792e-04 0.0000000000000000e+00  1.6376277515305651e-04 1.2199453767655402e-04 0.0000000000000000e+00  1.6562276391934454e-04 1.3768002422392533e-04 0.0000000000000000e+00  1.6718540498541874e-04 1.4560271323049075e-04 0.0000000000000000e+00  1.6645759765568119e-04 1.4654969900338149e-04 0.0000000000000000e+00  1.6149706537016092e-04 1.4680812357831255e-04 0.0000000000000000e+00  1.5468596917758123e-04 1.4861775510503821e-04 0.0000000000000000e+00  1.4849703453498345e-04 1.4767954488327848e-04 0.0000000000000000e+00  1.4238104777332001e-04 1.4436393876634507e-04 0.0000000000000000e+00  1.4227488382645816e-04 1.4164426324860319e-04 0.0000000000000000e+00  1.4468397471783956e-04 1.3195334616726779e-04 0.0000000000000000e+00  1.4170711969446647e-04 1.2376085534369596e-04 0.0000000000000000e+00  1.3704750756536631e-04 1.1864462239055691e-04 0.0000000000000000e+00  1.3108091275062513e-04 1.1888915367096628e-04 0.0000000000000000e+00  1.2366829963170677e-04 1.1366027722152443e-04 0.0000000000000000e+00  1.1519133967538975e-04 9.9908713648708561e-05 0.0000000000000000e+00  1.0632617734679981e-04 8.6911594137047403e-05 0.0000000000000000e+00  1.0147176368837463e-04 8.1637337944555604e-05 0.0000000000000000e+00  9.7500863029144133e-05 7.8821208842873099e-05 0.0000000000000000e+00  9.1450340138226314e-05 7.9694980178171321e-05 0.0000000000000000e+00  8.3477040011404455e-05 7.6664539975721536e-05 0.0000000000000000e+00  7.5143517605461159e-05 7.3875448713949806e-05 0.0000000000000000e+00  6.8599669064568625e-05 7.4004374180599474e-05 0.0000000000000000e+00  6.2655388249925999e-05 7.5872122244612255e-05 0.0000000000000000e+00  6.2730110240592849e-05 7.9158302595708422e-05 0.0000000000000000e+00  </DataArray> 
</PointData> 
</Piece>
</UnstructuredGrid>
</VTKFile>