<?xml version="1.0"?>
<VTKFile type="UnstructuredGrid"  version="0.1"  >
<UnstructuredGrid>
<Piece  NumberOfPoints="135" NumberOfCells="208">
<Points>
<DataArray  type="Float64"  NumberOfComponents="3"  format="ascii">1 1 0  1.076923076923077 1 0  1.153846153846154 1 0  1.230769230769231 1 0  1.307692307692308 1 0  1.384615384615385 1 0  1.461538461538462 1 0  1.538461538461538 1 0  1.615384615384615 1 0  1.692307692307692 1 0  1.769230769230769 1 0  1.846153846153846 1 0  1.923076923076923 1 0  2 1 0  2.076923076923077 1 0  2.153846153846154 1 0  2.230769230769231 1 0  2.307692307692307 1 0  2.384615384615385 1 0  2.461538461538462 1 0  2.538461538461538 1 0  2.615384615384615 1 0  2.692307692307693 1 0  2.769230769230769 1 0  2.846153846153846 1 0  2.923076923076923 1 0  3 1 0  1 1.0625 0  1.076923076923077 1.0625 0  1.153846153846154 1.0625 0  1.230769230769231 1.0625 0  1.307692307692308 1.0625 0  1.384615384615385 1.0625 0  1.461538461538462 1.0625 0  1.538461538461538 1.0625 0  1.615384615384615 1.0625 0  1.692307692307692 1.0625 0  1.769230769230769 1.0625 0  1.846153846153846 1.0625 0  1.923076923076923 1.0625 0  2 1.0625 0  2.076923076923077 1.0625 0  2.153846153846154 1.0625 0  2.230769230769231 1.0625 0  2.307692307692307 1.0625 0  2.384615384615385 1.0625 0  2.461538461538462 1.0625 0  2.538461538461538 1.0625 0  2.615384615384615 1.0625 0  2.692307692307693 1.0625 0  2.769230769230769 1.0625 0  2.846153846153846 1.0625 0  2.923076923076923 1.0625 0  3 1.0625 0  1 1.125 0  1.076923076923077 1.125 0  1.153846153846154 1.125 0  1.230769230769231 1.125 0  1.307692307692308 1.125 0  1.384615384615385 1.125 0  1.461538461538462 1.125 0  1.538461538461538 1.125 0  1.615384615384615 1.125 0  1.692307692307692 1.125 0  1.769230769230769 1.125 0  1.846153846153846 1.125 0  1.923076923076923 1.125 0  2 1.125 0  2.076923076923077 1.125 0  2.153846153846154 1.125 0  2.230769230769231 1.125 0  2.307692307692307 1.125 0  2.384615384615385 1.125 0  2.461538461538462 1.125 0  2.538461538461538 1.125 0  2.615384615384615 1.125 0  2.692307692307693 1.125 0  2.769230769230769 1.125 0  2.846153846153846 1.125 0  2.923076923076923 1.125 0  3 1.125 0  1 1.1875 0  1.076923076923077 1.1875 0  1.153846153846154 1.1875 0  1.230769230769231 1.1875 0  1.307692307692308 1.1875 0  1.384615384615385 1.1875 0  1.461538461538462 1.1875 0  1.538461538461538 1.1875 0  1.615384615384615 1.1875 0  1.692307692307692 1.1875 0  1.769230769230769 1.1875 0  1.846153846153846 1.1875 0  1.923076923076923 1.1875 0  2 1.1875 0  2.076923076923077 1.1875 0  2.153846153846154 1.1875 0  2.230769230769231 1.1875 0  2.307692307692307 1.1875 0  2.384615384615385 1.1875 0  2.461538461538462 1.1875 0  2.538461538461538 1.1875 0  2.615384615384615 1.1875 0  2.692307692307693 1.1875 0  2.769230769230769 1.1875 0  2.846153846153846 1.1875 0  2.923076923076923 1.1875 0  3 1.1875 0  1 1.25 0  1.076923076923077 1.25 0  1.153846153846154 1.25 0  1.230769230769231 1.25 0  1.307692307692308 1.25 0  1.384615384615385 1.25 0  1.461538461538462 1.25 0  1.538461538461538 1.25 0  1.615384615384615 1.25 0  1.692307692307692 1.25 0  1.769230769230769 1.25 0  1.846153846153846 1.25 0  1.923076923076923 1.25 0  2 1.25 0  2.076923076923077 1.25 0  2.153846153846154 1.25 0  2.230769230769231 1.25 0  2.307692307692307 1.25 0  2.384615384615385 1.25 0  2.461538461538462 1.25 0  2.538461538461538 1.25 0  2.615384615384615 1.25 0  2.692307692307693 1.25 0  2.769230769230769 1.25 0  2.846153846153846 1.25 0  2.923076923076923 1.25 0  3 1.25 0  </DataArray>
</Points>
<Cells>
<DataArray  type="UInt32"  Name="connectivity"  format="ascii">0 1 28  0 27 28  1 2 29  1 28 29  2 3 30  2 29 30  3 4 31  3 30 31  4 5 32  4 31 32  5 6 33  5 32 33  6 7 34  6 33 34  7 8 35  7 34 35  8 9 36  8 35 36  9 10 37  9 36 37  10 11 38  10 37 38  11 12 39  11 38 39  12 13 40  12 39 40  13 14 41  13 40 41  14 15 42  14 41 42  15 16 43  15 42 43  16 17 44  16 43 44  17 18 45  17 44 45  18 19 46  18 45 46  19 20 47  19 46 47  20 21 48  20 47 48  21 22 49  21 48 49  22 23 50  22 49 50  23 24 51  23 50 51  24 25 52  24 51 52  25 26 53  25 52 53  27 28 55  27 54 55  28 29 56  28 55 56  29 30 57  29 56 57  30 31 58  30 57 58  31 32 59  31 58 59  32 33 60  32 59 60  33 34 61  33 60 61  34 35 62  34 61 62  35 36 63  35 62 63  36 37 64  36 63 64  37 38 65  37 64 65  38 39 66  38 65 66  39 40 67  39 66 67  40 41 68  40 67 68  41 42 69  41 68 69  42 43 70  42 69 70  43 44 71  43 70 71  44 45 72  44 71 72  45 46 73  45 72 73  46 47 74  46 73 74  47 48 75  47 74 75  48 49 76  48 75 76  49 50 77  49 76 77  50 51 78  50 77 78  51 52 79  51 78 79  52 53 80  52 79 80  54 55 82  54 81 82  55 56 83  55 82 83  56 57 84  56 83 84  57 58 85  57 84 85  58 59 86  58 85 86  59 60 87  59 86 87  60 61 88  60 87 88  61 62 89  61 88 89  62 63 90  62 89 90  63 64 91  63 90 91  64 65 92  64 91 92  65 66 93  65 92 93  66 67 94  66 93 94  67 68 95  67 94 95  68 69 96  68 95 96  69 70 97  69 96 97  70 71 98  70 97 98  71 72 99  71 98 99  72 73 100  72 99 100  73 74 101  73 100 101  74 75 102  74 101 102  75 76 103  75 102 103  76 77 104  76 103 104  77 78 105  77 104 105  78 79 106  78 105 106  79 80 107  79 106 107  81 82 109  81 108 109  82 83 110  82 109 110  83 84 111  83 110 111  84 85 112  84 111 112  85 86 113  85 112 113  86 87 114  86 113 114  87 88 115  87 114 115  88 89 116  88 115 116  89 90 117  89 116 117  90 91 118  90 117 118  91 92 119  91 118 119  92 93 120  92 119 120  93 94 121  93 120 121  94 95 122  94 121 122  95 96 123  95 122 123  96 97 124  96 123 124  97 98 125  97 124 125  98 99 126  98 125 126  99 100 127  99 126 127  100 101 128  100 127 128  101 102 129  101 128 129  102 103 130  102 129 130  103 104 131  103 130 131  104 105 132  104 131 132  105 106 133  105 132 133  106 107 134  106 133 134  </DataArray>
<DataArray  type="UInt32"  Name="offsets"  format="ascii">3 6 9 12 15 18 21 24 27 30 33 36 39 42 45 48 51 54 57 60 63 66 69 72 75 78 81 84 87 90 93 96 99 102 105 108 111 114 117 120 123 126 129 132 135 138 141 144 147 150 153 156 159 162 165 168 171 174 177 180 183 186 189 192 195 198 201 204 207 210 213 216 219 222 225 228 231 234 237 240 243 246 249 252 255 258 261 264 267 270 273 276 279 282 285 288 291 294 297 300 303 306 309 312 315 318 321 324 327 330 333 336 339 342 345 348 351 354 357 360 363 366 369 372 375 378 381 384 387 390 393 396 399 402 405 408 411 414 417 420 423 426 429 432 435 438 441 444 447 450 453 456 459 462 465 468 471 474 477 480 483 486 489 492 495 498 501 504 507 510 513 516 519 522 525 528 531 534 537 540 543 546 549 552 555 558 561 564 567 570 573 576 579 582 585 588 591 594 597 600 603 606 609 612 615 618 621 624 </DataArray>
<DataArray  type="UInt8"  Name="types"  format="ascii">5 5 5 5 5 5 5 5 5 5 5 5 5 5 5 5 5 5 5 5 5 5 5 5 5 5 5 5 5 5 5 5 5 5 5 5 5 5 5 5 5 5 5 5 5 5 5 5 5 5 5 5 5 5 5 5 5 5 5 5 5 5 5 5 5 5 5 5 5 5 5 5 5 5 5 5 5 5 5 5 5 5 5 5 5 5 5 5 5 5 5 5 5 5 5 5 5 5 5 5 5 5 5 5 5 5 5 5 5 5 5 5 5 5 5 5 5 5 5 5 5 5 5 5 5 5 5 5 5 5 5 5 5 5 5 5 5 5 5 5 5 5 5 5 5 5 5 5 5 5 5 5 5 5 5 5 5 5 5 5 5 5 5 5 5 5 5 5 5 5 5 5 5 5 5 5 5 5 5 5 5 5 5 5 5 5 5 5 5 5 5 5 5 5 5 5 5 5 5 5 5 5 5 5 5 5 5 5 </DataArray>
</Cells>
<PointData  Vectors="Displacement"> 
<DataArray  type="Float64"  Name="Displacement"  NumberOfComponents="3" format="ascii">2.9295884810878194e-04 1.8689423061556145e-04 0.0000000000000000e+00  3.4096366854644234e-04 7.0315777664765584e-05 0.0000000000000000e+00  3.5106124943315160e-04 1.0598149424170155e-04 0.0000000000000000e+00  3.4196457850672158e-04 1.3417692789907698e-04 0.0000000000000000e+00  3.2772391022035024e-04 1.5379557805775485e-04 0.0000000000000000e+00  3.1594058367530174e-04 1.6797814937247587e-04 0.0000000000000000e+00  3.0677509133740977e-04 1.8358645446753233e-04 0.0000000000000000e+00  2.9575238280684925e-04 1.9407624914583071e-04 0.0000000000000000e+00  2.8466499945348884e-04 1.9673712823288489e-04 0.0000000000000000e+00  2.7623582684769898e-04 1.9343451356893990e-04 0.0000000000000000e+00  2.7155460524125921e-04 1.8734790482001224e-04 0.0000000000000000e+00  2.6849434952487593e-04 1.8112595854236972e-04 0.0000000000000000e+00  2.6632673832888365e-04 1.7611936647311555e-04 0.0000000000000000e+00  2.6295142363195415e-04 1.6770080165562850e-04 0.0000000000000000e+00  2.6100522510011685e-04 1.5476396898644933e-04 0.0000000000000000e+00  2.6059031457273228e-04 1.4123420904997924e-04 0.0000000000000000e+00  2.6237336854226527e-04 1.3729361135440471e-04 0.0000000000000000e+00  2.6127271322079021e-04 1.3438092601359320e-04 0.0000000000000000e+00  2.5779016641726813e-04 1.2986666354050362e-04 0.0000000000000000e+00  2.5235764980771115e-04 1.2482825274072102e-04 0.0000000000000000e+00  2.4970760652502378e-04 1.1516111173961023e-04 0.0000000000000000e+00  2.5360576871048785e-04 1.0315061375677479e-04 0.0000000000000000e+00  2.5779118449193529e-04 1.0866379576909500e-04 0.0000000000000000e+00  2.5965211727625959e-04 1.0825659650509987e-04 0.0000000000000000e+00  2.6506035994899261e-04 1.0877647255064728e-04 0.0000000000000000e+00  2.6792782562885196e-04 1.1395965133846942e-04 0.0000000000000000e+00  2.8463846812122969e-04 1.6820702603507885e-04 0.0000000000000000e+00  3.4511729149230261e-04 8.5209102446002084e-05 0.0000000000000000e+00  3.4359892657508773e-04 7.6233928301435165e-05 0.0000000000000000e+00  3.3052688209593252e-04 1.0836210685466690e-04 0.0000000000000000e+00  3.2005374415205881e-04 1.3803395678960365e-04 0.0000000000000000e+00  3.1101672223391732e-04 1.5915409550892073e-04 0.0000000000000000e+00  3.0128836062096596e-04 1.7323935440132911e-04 0.0000000000000000e+00  2.9414482413264020e-04 1.8799058480998477e-04 0.0000000000000000e+00  2.8774611688603131e-04 1.9796959794023483e-04 0.0000000000000000e+00  2.8328933049136658e-04 2.0116978591925902e-04 0.0000000000000000e+00  2.7812186718038901e-04 1.9671116745741612e-04 0.0000000000000000e+00  2.7553570815844013e-04 1.8937458775501742e-04 0.0000000000000000e+00  2.7289829001403974e-04 1.8287777996798957e-04 0.0000000000000000e+00  2.7170572982891184e-04 1.7668064188277639e-04 0.0000000000000000e+00  2.7105656002672664e-04 1.6902500750683744e-04 0.0000000000000000e+00  2.7098613837608319e-04 1.5571887421909065e-04 0.0000000000000000e+00  2.6842024987240381e-04 1.4313114623115431e-04 0.0000000000000000e+00  2.6602512745866030e-04 1.3694581314018412e-04 0.0000000000000000e+00  2.6608627602113765e-04 1.3463086275825202e-04 0.0000000000000000e+00  2.6375561540813120e-04 1.3302059046402194e-04 0.0000000000000000e+00  2.6044630410567750e-04 1.2663338686191023e-04 0.0000000000000000e+00  2.5828558830610465e-04 1.1504634299558549e-04 0.0000000000000000e+00  2.5751582058935541e-04 1.0420395319660687e-04 0.0000000000000000e+00  2.5642037854653503e-04 1.0672633302796518e-04 0.0000000000000000e+00  2.6200059213986055e-04 1.0643762941152019e-04 0.0000000000000000e+00  2.6182899060899455e-04 1.1021544681298788e-04 0.0000000000000000e+00  2.5832924994104948e-04 1.2236327393958180e-04 0.0000000000000000e+00  2.5829260332408744e-04 1.3960642030380865e-04 0.0000000000000000e+00  3.2092247321875879e-04 4.3721446881921791e-05 0.0000000000000000e+00  3.2519826708776652e-04 8.2338017528944208e-05 0.0000000000000000e+00  3.1290629481174034e-04 1.1622620288670721e-04 0.0000000000000000e+00  3.0031461665464335e-04 1.4406043508630718e-04 0.0000000000000000e+00  2.9281178892239505e-04 1.6424735116424033e-04 0.0000000000000000e+00  2.8722781605506969e-04 1.7745322883793059e-04 0.0000000000000000e+00  2.8260492805617926e-04 1.9009563727606201e-04 0.0000000000000000e+00  2.8105355592251442e-04 1.9992772443019207e-04 0.0000000000000000e+00  2.8002841165794497e-04 2.0315791666985049e-04 0.0000000000000000e+00  2.7815265585403562e-04 1.9848430270340647e-04 0.0000000000000000e+00  2.7681997701889811e-04 1.9081482481106871e-04 0.0000000000000000e+00  2.7676507581272496e-04 1.8447186201423797e-04 0.0000000000000000e+00  2.7600605596686078e-04 1.7702906821011428e-04 0.0000000000000000e+00  2.7733165409033519e-04 1.6879272943919274e-04 0.0000000000000000e+00  2.7791609966155382e-04 1.5626958506934332e-04 0.0000000000000000e+00  2.7493961992151763e-04 1.4597217551844769e-04 0.0000000000000000e+00  2.7065486265308487e-04 1.3822777739165069e-04 0.0000000000000000e+00  2.6969915790459617e-04 1.3478940067241448e-04 0.0000000000000000e+00  2.6806071295139885e-04 1.3229900213582583e-04 0.0000000000000000e+00  2.6844588304007392e-04 1.2846818039568867e-04 0.0000000000000000e+00  2.6422516649399468e-04 1.1758580955264017e-04 0.0000000000000000e+00  2.5968219445954342e-04 1.0700553678156498e-04 0.0000000000000000e+00  2.5738654187671106e-04 1.0453148595465283e-04 0.0000000000000000e+00  2.5904426737720257e-04 1.0532586812914234e-04 0.0000000000000000e+00  2.5636971503634117e-04 1.1323278956698643e-04 0.0000000000000000e+00  2.5781316905061825e-04 1.2404524606648884e-04 0.0000000000000000e+00  2.5940902225109311e-04 1.3262047550400766e-04 0.0000000000000000e+00  2.8170819231897518e-04 5.1912381683222765e-06 0.0000000000000000e+00  2.8952489746140151e-04 8.1380769742949797e-05 0.0000000000000000e+00  2.8313058759016292e-04 1.2415581966525367e-04 0.0000000000000000e+00  2.7814048568568098e-04 1.4979245434744491e-04 0.0000000000000000e+00  2.7505490917125017e-04 1.6596479242514254e-04 0.0000000000000000e+00  2.7409208493370707e-04 1.7915095785402794e-04 0.0000000000000000e+00  2.7358602783051267e-04 1.9044373150278610e-04 0.0000000000000000e+00  2.7458816128191397e-04 1.9901832144509068e-04 0.0000000000000000e+00  2.7697420987019933e-04 2.0214177599204509e-04 0.0000000000000000e+00  2.7863360933998453e-04 1.9910847814504171e-04 0.0000000000000000e+00  2.7926368282163287e-04 1.9211214786677211e-04 0.0000000000000000e+00  2.8050341061304713e-04 1.8389948855006977e-04 0.0000000000000000e+00  2.8178239100140232e-04 1.7631565801002022e-04 0.0000000000000000e+00  2.8412383611268837e-04 1.6791659931820584e-04 0.0000000000000000e+00  2.8257339555663388e-04 1.5746551722540720e-04 0.0000000000000000e+00  2.8033914446452476e-04 1.4881716800598766e-04 0.0000000000000000e+00  2.7623202764391483e-04 1.4103092297482764e-04 0.0000000000000000e+00  2.7418258566473550e-04 1.3428665264790597e-04 0.0000000000000000e+00  2.7185812307526974e-04 1.3097051355664591e-04 0.0000000000000000e+00  2.7140967899496297e-04 1.2840753328143402e-04 0.0000000000000000e+00  2.6833685971121990e-04 1.2074341709884277e-04 0.0000000000000000e+00  2.6490283170754357e-04 1.1021035108820037e-04 0.0000000000000000e+00  2.6094915575261389e-04 1.0517321338851488e-04 0.0000000000000000e+00  2.5649421406217252e-04 1.0826024735604860e-04 0.0000000000000000e+00  2.5284514076732577e-04 1.1425280045219277e-04 0.0000000000000000e+00  2.5459911745099369e-04 1.2139775473405993e-04 0.0000000000000000e+00  2.5415114475389766e-04 1.3428560730969954e-04 0.0000000000000000e+00  1.7472040369175530e-04 -8.9352911223612144e-05 0.0000000000000000e+00  2.3021427587566364e-04 7.9962648576393280e-05 0.0000000000000000e+00  2.5151005866112813e-04 1.2368856683395279e-04 0.0000000000000000e+00  2.5850730487203115e-04 1.4965828521597881e-04 0.0000000000000000e+00  2.6159084898018386e-04 1.6523719393885834e-04 0.0000000000000000e+00  2.6223703153271634e-04 1.7821324401707703e-04 0.0000000000000000e+00  2.6555033370694351e-04 1.8833017475688754e-04 0.0000000000000000e+00  2.6958021872259261e-04 1.9599725788147954e-04 0.0000000000000000e+00  2.7551589443912541e-04 1.9935831947624465e-04 0.0000000000000000e+00  2.7960096324384267e-04 1.9678180027105587e-04 0.0000000000000000e+00  2.8409069751545466e-04 1.9001495323155162e-04 0.0000000000000000e+00  2.8567537981443993e-04 1.8208440471202604e-04 0.0000000000000000e+00  2.8802028688501970e-04 1.7414451057539099e-04 0.0000000000000000e+00  2.8961544332018038e-04 1.6665936790087788e-04 0.0000000000000000e+00  2.8889462156397687e-04 1.5832129431943905e-04 0.0000000000000000e+00  2.8591516841903493e-04 1.4959981534019438e-04 0.0000000000000000e+00  2.8208271590793001e-04 1.4206009907512094e-04 0.0000000000000000e+00  2.7836453303397207e-04 1.3403652607407547e-04 0.0000000000000000e+00  2.7512882014492178e-04 1.3058314719303159e-04 0.0000000000000000e+00  2.7408741798729609e-04 1.2840283679064040e-04 0.0000000000000000e+00  2.7333924901744712e-04 1.2195957942156058e-04 0.0000000000000000e+00  2.6925549818867460e-04 1.1235879852401483e-04 0.0000000000000000e+00  2.6280009582976442e-04 1.0656691361057575e-04 0.0000000000000000e+00  2.5636877234535394e-04 1.1146121464418144e-04 0.0000000000000000e+00  2.5281688573841724e-04 1.1551428902781040e-04 0.0000000000000000e+00  2.4778322539364809e-04 1.2249637618825688e-04 0.0000000000000000e+00  2.4434848336421814e-04 1.3445958931942697e-04 0.0000000000000000e+00  </DataArray> 
</PointData> 
</Piece>
</UnstructuredGrid>
</VTKFile>