<?xml version="1.0"?>
<VTKFile type="UnstructuredGrid"  version="0.1"  >
<UnstructuredGrid>
<Piece  NumberOfPoints="135" NumberOfCells="208">
<Points>
<DataArray  type="Float64"  NumberOfComponents="3"  format="ascii">1 1 0  1.076923076923077 1 0  1.153846153846154 1 0  1.230769230769231 1 0  1.307692307692308 1 0  1.384615384615385 1 0  1.461538461538462 1 0  1.538461538461538 1 0  1.615384615384615 1 0  1.692307692307692 1 0  1.769230769230769 1 0  1.846153846153846 1 0  1.923076923076923 1 0  2 1 0  2.076923076923077 1 0  2.153846153846154 1 0  2.230769230769231 1 0  2.307692307692307 1 0  2.384615384615385 1 0  2.461538461538462 1 0  2.538461538461538 1 0  2.615384615384615 1 0  2.692307692307693 1 0  2.769230769230769 1 0  2.846153846153846 1 0  2.923076923076923 1 0  3 1 0  1 1.0625 0  1.076923076923077 1.0625 0  1.153846153846154 1.0625 0  1.230769230769231 1.0625 0  1.307692307692308 1.0625 0  1.384615384615385 1.0625 0  1.461538461538462 1.0625 0  1.538461538461538 1.0625 0  1.615384615384615 1.0625 0  1.692307692307692 1.0625 0  1.769230769230769 1.0625 0  1.846153846153846 1.0625 0  1.923076923076923 1.0625 0  2 1.0625 0  2.076923076923077 1.0625 0  2.153846153846154 1.0625 0  2.230769230769231 1.0625 0  2.307692307692307 1.0625 0  2.384615384615385 1.0625 0  2.461538461538462 1.0625 0  2.538461538461538 1.0625 0  2.615384615384615 1.0625 0  2.692307692307693 1.0625 0  2.769230769230769 1.0625 0  2.846153846153846 1.0625 0  2.923076923076923 1.0625 0  3 1.0625 0  1 1.125 0  1.076923076923077 1.125 0  1.153846153846154 1.125 0  1.230769230769231 1.125 0  1.307692307692308 1.125 0  1.384615384615385 1.125 0  1.461538461538462 1.125 0  1.538461538461538 1.125 0  1.615384615384615 1.125 0  1.692307692307692 1.125 0  1.769230769230769 1.125 0  1.846153846153846 1.125 0  1.923076923076923 1.125 0  2 1.125 0  2.076923076923077 1.125 0  2.153846153846154 1.125 0  2.230769230769231 1.125 0  2.307692307692307 1.125 0  2.384615384615385 1.125 0  2.461538461538462 1.125 0  2.538461538461538 1.125 0  2.615384615384615 1.125 0  2.692307692307693 1.125 0  2.769230769230769 1.125 0  2.846153846153846 1.125 0  2.923076923076923 1.125 0  3 1.125 0  1 1.1875 0  1.076923076923077 1.1875 0  1.153846153846154 1.1875 0  1.230769230769231 1.1875 0  1.307692307692308 1.1875 0  1.384615384615385 1.1875 0  1.461538461538462 1.1875 0  1.538461538461538 1.1875 0  1.615384615384615 1.1875 0  1.692307692307692 1.1875 0  1.769230769230769 1.1875 0  1.846153846153846 1.1875 0  1.923076923076923 1.1875 0  2 1.1875 0  2.076923076923077 1.1875 0  2.153846153846154 1.1875 0  2.230769230769231 1.1875 0  2.307692307692307 1.1875 0  2.384615384615385 1.1875 0  2.461538461538462 1.1875 0  2.538461538461538 1.1875 0  2.615384615384615 1.1875 0  2.692307692307693 1.1875 0  2.769230769230769 1.1875 0  2.846153846153846 1.1875 0  2.923076923076923 1.1875 0  3 1.1875 0  1 1.25 0  1.076923076923077 1.25 0  1.153846153846154 1.25 0  1.230769230769231 1.25 0  1.307692307692308 1.25 0  1.384615384615385 1.25 0  1.461538461538462 1.25 0  1.538461538461538 1.25 0  1.615384615384615 1.25 0  1.692307692307692 1.25 0  1.769230769230769 1.25 0  1.846153846153846 1.25 0  1.923076923076923 1.25 0  2 1.25 0  2.076923076923077 1.25 0  2.153846153846154 1.25 0  2.230769230769231 1.25 0  2.307692307692307 1.25 0  2.384615384615385 1.25 0  2.461538461538462 1.25 0  2.538461538461538 1.25 0  2.615384615384615 1.25 0  2.692307692307693 1.25 0  2.769230769230769 1.25 0  2.846153846153846 1.25 0  2.923076923076923 1.25 0  3 1.25 0  </DataArray>
</Points>
<Cells>
<DataArray  type="UInt32"  Name="connectivity"  format="ascii">0 1 28  0 27 28  1 2 29  1 28 29  2 3 30  2 29 30  3 4 31  3 30 31  4 5 32  4 31 32  5 6 33  5 32 33  6 7 34  6 33 34  7 8 35  7 34 35  8 9 36  8 35 36  9 10 37  9 36 37  10 11 38  10 37 38  11 12 39  11 38 39  12 13 40  12 39 40  13 14 41  13 40 41  14 15 42  14 41 42  15 16 43  15 42 43  16 17 44  16 43 44  17 18 45  17 44 45  18 19 46  18 45 46  19 20 47  19 46 47  20 21 48  20 47 48  21 22 49  21 48 49  22 23 50  22 49 50  23 24 51  23 50 51  24 25 52  24 51 52  25 26 53  25 52 53  27 28 55  27 54 55  28 29 56  28 55 56  29 30 57  29 56 57  30 31 58  30 57 58  31 32 59  31 58 59  32 33 60  32 59 60  33 34 61  33 60 61  34 35 62  34 61 62  35 36 63  35 62 63  36 37 64  36 63 64  37 38 65  37 64 65  38 39 66  38 65 66  39 40 67  39 66 67  40 41 68  40 67 68  41 42 69  41 68 69  42 43 70  42 69 70  43 44 71  43 70 71  44 45 72  44 71 72  45 46 73  45 72 73  46 47 74  46 73 74  47 48 75  47 74 75  48 49 76  48 75 76  49 50 77  49 76 77  50 51 78  50 77 78  51 52 79  51 78 79  52 53 80  52 79 80  54 55 82  54 81 82  55 56 83  55 82 83  56 57 84  56 83 84  57 58 85  57 84 85  58 59 86  58 85 86  59 60 87  59 86 87  60 61 88  60 87 88  61 62 89  61 88 89  62 63 90  62 89 90  63 64 91  63 90 91  64 65 92  64 91 92  65 66 93  65 92 93  66 67 94  66 93 94  67 68 95  67 94 95  68 69 96  68 95 96  69 70 97  69 96 97  70 71 98  70 97 98  71 72 99  71 98 99  72 73 100  72 99 100  73 74 101  73 100 101  74 75 102  74 101 102  75 76 103  75 102 103  76 77 104  76 103 104  77 78 105  77 104 105  78 79 106  78 105 106  79 80 107  79 106 107  81 82 109  81 108 109  82 83 110  82 109 110  83 84 111  83 110 111  84 85 112  84 111 112  85 86 113  85 112 113  86 87 114  86 113 114  87 88 115  87 114 115  88 89 116  88 115 116  89 90 117  89 116 117  90 91 118  90 117 118  91 92 119  91 118 119  92 93 120  92 119 120  93 94 121  93 120 121  94 95 122  94 121 122  95 96 123  95 122 123  96 97 124  96 123 124  97 98 125  97 124 125  98 99 126  98 125 126  99 100 127  99 126 127  100 101 128  100 127 128  101 102 129  101 128 129  102 103 130  102 129 130  103 104 131  103 130 131  104 105 132  104 131 132  105 106 133  105 132 133  106 107 134  106 133 134  </DataArray>
<DataArray  type="UInt32"  Name="offsets"  format="ascii">3 6 9 12 15 18 21 24 27 30 33 36 39 42 45 48 51 54 57 60 63 66 69 72 75 78 81 84 87 90 93 96 99 102 105 108 111 114 117 120 123 126 129 132 135 138 141 144 147 150 153 156 159 162 165 168 171 174 177 180 183 186 189 192 195 198 201 204 207 210 213 216 219 222 225 228 231 234 237 240 243 246 249 252 255 258 261 264 267 270 273 276 279 282 285 288 291 294 297 300 303 306 309 312 315 318 321 324 327 330 333 336 339 342 345 348 351 354 357 360 363 366 369 372 375 378 381 384 387 390 393 396 399 402 405 408 411 414 417 420 423 426 429 432 435 438 441 444 447 450 453 456 459 462 465 468 471 474 477 480 483 486 489 492 495 498 501 504 507 510 513 516 519 522 525 528 531 534 537 540 543 546 549 552 555 558 561 564 567 570 573 576 579 582 585 588 591 594 597 600 603 606 609 612 615 618 621 624 </DataArray>
<DataArray  type="UInt8"  Name="types"  format="ascii">5 5 5 5 5 5 5 5 5 5 5 5 5 5 5 5 5 5 5 5 5 5 5 5 5 5 5 5 5 5 5 5 5 5 5 5 5 5 5 5 5 5 5 5 5 5 5 5 5 5 5 5 5 5 5 5 5 5 5 5 5 5 5 5 5 5 5 5 5 5 5 5 5 5 5 5 5 5 5 5 5 5 5 5 5 5 5 5 5 5 5 5 5 5 5 5 5 5 5 5 5 5 5 5 5 5 5 5 5 5 5 5 5 5 5 5 5 5 5 5 5 5 5 5 5 5 5 5 5 5 5 5 5 5 5 5 5 5 5 5 5 5 5 5 5 5 5 5 5 5 5 5 5 5 5 5 5 5 5 5 5 5 5 5 5 5 5 5 5 5 5 5 5 5 5 5 5 5 5 5 5 5 5 5 5 5 5 5 5 5 5 5 5 5 5 5 5 5 5 5 5 5 5 5 5 5 5 5 </DataArray>
</Cells>
<PointData  Vectors="Displacement"> 
<DataArray  type="Float64"  Name="Displacement"  NumberOfComponents="3" format="ascii">1.3463966427933004e-04 1.5888976716961652e-04 0.0000000000000000e+00  1.6204941622443105e-04 6.3018173642005450e-05 0.0000000000000000e+00  1.6899620599895301e-04 8.3159703030377994e-05 0.0000000000000000e+00  1.6176900591681795e-04 9.4852684194549167e-05 0.0000000000000000e+00  1.5274132999626308e-04 1.0109944643141733e-04 0.0000000000000000e+00  1.4672996042353897e-04 1.0817565284796994e-04 0.0000000000000000e+00  1.3860454826261024e-04 1.1511959364291788e-04 0.0000000000000000e+00  1.2886764991513008e-04 1.2258202362504090e-04 0.0000000000000000e+00  1.1720904159010531e-04 1.2104838564095275e-04 0.0000000000000000e+00  1.0602727561973094e-04 1.1327119336931776e-04 0.0000000000000000e+00  1.0072217930028445e-04 1.0675535379170023e-04 0.0000000000000000e+00  9.5259644997401427e-05 1.0230307521075104e-04 0.0000000000000000e+00  8.3719431852120879e-05 9.8489087966512504e-05 0.0000000000000000e+00  7.3689207541269535e-05 8.8772384883301699e-05 0.0000000000000000e+00  6.5827160382728452e-05 8.6468212519872874e-05 0.0000000000000000e+00  5.5290126597335175e-05 8.1251386572972809e-05 0.0000000000000000e+00  5.0555024929775081e-05 7.5956060835711810e-05 0.0000000000000000e+00  4.5207933714560147e-05 7.3123107255956284e-05 0.0000000000000000e+00  3.7292406146311903e-05 7.3305080592368584e-05 0.0000000000000000e+00  2.8488896859202886e-05 6.8675639021866037e-05 0.0000000000000000e+00  2.3398889586977865e-05 5.9708111549495997e-05 0.0000000000000000e+00  2.2489202901986348e-05 4.9841794049152087e-05 0.0000000000000000e+00  2.4659146410080693e-05 4.6728716303000317e-05 0.0000000000000000e+00  2.5689428469232229e-05 4.7478244506923729e-05 0.0000000000000000e+00  2.5160364388358090e-05 4.8925706612752865e-05 0.0000000000000000e+00  2.7055032655986823e-05 4.9005969158868226e-05 0.0000000000000000e+00  4.0770971277757269e-05 8.9180509156470603e-05 0.0000000000000000e+00  1.7131904473942792e-04 8.0355509551777670e-05 0.0000000000000000e+00  1.7200589715090351e-04 6.7878882062446321e-05 0.0000000000000000e+00  1.6220746610179617e-04 8.4872547752220056e-05 0.0000000000000000e+00  1.5400478508716318e-04 9.8805091165143008e-05 0.0000000000000000e+00  1.4581279801383827e-04 1.0563670027219820e-04 0.0000000000000000e+00  1.3847867976271968e-04 1.1327971958306354e-04 0.0000000000000000e+00  1.3336522144587781e-04 1.2035650852120561e-04 0.0000000000000000e+00  1.2756818372581871e-04 1.2850683845344976e-04 0.0000000000000000e+00  1.2154165388963402e-04 1.2870607080229157e-04 0.0000000000000000e+00  1.1220010586401497e-04 1.1997029305658871e-04 0.0000000000000000e+00  1.0506240845447234e-04 1.1187432408960633e-04 0.0000000000000000e+00  9.7014248117441730e-05 1.0916903354517411e-04 0.0000000000000000e+00  8.8154694956079483e-05 1.0660613971353150e-04 0.0000000000000000e+00  7.8973848080508859e-05 9.5732218247019033e-05 0.0000000000000000e+00  7.0815858302957711e-05 9.5452519291881421e-05 0.0000000000000000e+00  6.0519075949138737e-05 8.7712950465869654e-05 0.0000000000000000e+00  5.3284422218910381e-05 8.3003756337412558e-05 0.0000000000000000e+00  4.5973377348398556e-05 8.0660127539919439e-05 0.0000000000000000e+00  3.9954732508892048e-05 7.9917979860901877e-05 0.0000000000000000e+00  3.5851284185445121e-05 7.3779258536372188e-05 0.0000000000000000e+00  3.1207651856684619e-05 6.3648518186326826e-05 0.0000000000000000e+00  2.9039595871710780e-05 5.3052196978794000e-05 0.0000000000000000e+00  2.7281324405434151e-05 4.8732006598240143e-05 0.0000000000000000e+00  2.6377903894605972e-05 4.9987365953011168e-05 0.0000000000000000e+00  2.4421327966900696e-05 5.2205016646110474e-05 0.0000000000000000e+00  2.0066639501595326e-05 5.6826814622499544e-05 0.0000000000000000e+00  1.7848384560384211e-05 7.0049117660523434e-05 0.0000000000000000e+00  1.6554214054902695e-04 4.6577297590804970e-05 0.0000000000000000e+00  1.6608735205753252e-04 7.1774800338549836e-05 0.0000000000000000e+00  1.5489930310743456e-04 9.0581212220023434e-05 0.0000000000000000e+00  1.4407650008501892e-04 1.0476136148529707e-04 0.0000000000000000e+00  1.3612651817042259e-04 1.1115422009515629e-04 0.0000000000000000e+00  1.3004551539011670e-04 1.1742230084346336e-04 0.0000000000000000e+00  1.2695263747921942e-04 1.2241491595515479e-04 0.0000000000000000e+00  1.2571264224320940e-04 1.3082071324466602e-04 0.0000000000000000e+00  1.2245701304646557e-04 1.3425539720039896e-04 0.0000000000000000e+00  1.1477835754411471e-04 1.2784395079672734e-04 0.0000000000000000e+00  1.0566279215698826e-04 1.1871494791059464e-04 0.0000000000000000e+00  9.7229796807186286e-05 1.1352951008665434e-04 0.0000000000000000e+00  9.2482544391320814e-05 1.1157207936004377e-04 0.0000000000000000e+00  8.1231217411435787e-05 1.0181732798048278e-04 0.0000000000000000e+00  7.4497627342228067e-05 1.0043841889038840e-04 0.0000000000000000e+00  6.5661589942091401e-05 9.6060884802332488e-05 0.0000000000000000e+00  5.6149658952389982e-05 9.0789178355612845e-05 0.0000000000000000e+00  4.7622797380629819e-05 8.7143703176926669e-05 0.0000000000000000e+00  4.5340001291476030e-05 8.3702862809293026e-05 0.0000000000000000e+00  4.1768791995197862e-05 7.7190608275238214e-05 0.0000000000000000e+00  3.7379909251965030e-05 6.7304937918841203e-05 0.0000000000000000e+00  3.3615062987889951e-05 5.7463585920680404e-05 0.0000000000000000e+00  3.0974607772279348e-05 5.1442177773057905e-05 0.0000000000000000e+00  2.7562578229975828e-05 5.2936618097308480e-05 0.0000000000000000e+00  2.3342149772284477e-05 5.6062559307219767e-05 0.0000000000000000e+00  2.0006331242771335e-05 6.1176441159379195e-05 0.0000000000000000e+00  1.7011725858921868e-05 6.5362585175194964e-05 0.0000000000000000e+00  1.5142942036078103e-04 1.3559689993431601e-05 0.0000000000000000e+00  1.4865437731152660e-04 7.3034747710411319e-05 0.0000000000000000e+00  1.3963470870005402e-04 9.8026933065857230e-05 0.0000000000000000e+00  1.3427840514068594e-04 1.0906999915766167e-04 0.0000000000000000e+00  1.2932328925759103e-04 1.1527728134898387e-04 0.0000000000000000e+00  1.2482823712752747e-04 1.2028519009174071e-04 0.0000000000000000e+00  1.2261646360101335e-04 1.2267001643024081e-04 0.0000000000000000e+00  1.2131443235404381e-04 1.3214326605354149e-04 0.0000000000000000e+00  1.1839247051671065e-04 1.3848260244909402e-04 0.0000000000000000e+00  1.1274912543378136e-04 1.3365763432033549e-04 0.0000000000000000e+00  1.0595388072633560e-04 1.2611789960114285e-04 0.0000000000000000e+00  9.7023006023971777e-05 1.1537006252356936e-04 0.0000000000000000e+00  9.4871652084319288e-05 1.1468463166353524e-04 0.0000000000000000e+00  8.7409240517832460e-05 1.0741896675442758e-04 0.0000000000000000e+00  7.8609755411375806e-05 1.0449731768697673e-04 0.0000000000000000e+00  6.9102555427061986e-05 1.0311769071772369e-04 0.0000000000000000e+00  5.9905552875392376e-05 9.8115676718994282e-05 0.0000000000000000e+00  5.2966691104421535e-05 9.2520819307435767e-05 0.0000000000000000e+00  5.0848520226652851e-05 8.6057061848389873e-05 0.0000000000000000e+00  4.7046522820602969e-05 7.9874274955916191e-05 0.0000000000000000e+00  4.0939020825852994e-05 7.0920835680875715e-05 0.0000000000000000e+00  3.7602133267494347e-05 6.1019165895250221e-05 0.0000000000000000e+00  3.2054740301111091e-05 5.5758316122473519e-05 0.0000000000000000e+00  2.6509787354644315e-05 5.6460796329333297e-05 0.0000000000000000e+00  2.2904517195948821e-05 5.8929348449409983e-05 0.0000000000000000e+00  2.1152565784963185e-05 6.3091696851418376e-05 0.0000000000000000e+00  1.7813406217319887e-05 6.5620556536120843e-05 0.0000000000000000e+00  6.0899131626326979e-05 -6.7344976339619582e-05 0.0000000000000000e+00  1.0619735089652821e-04 7.2942155507496319e-05 0.0000000000000000e+00  1.2195795053112858e-04 9.8600788262454141e-05 0.0000000000000000e+00  1.2479679716967889e-04 1.0969714993871287e-04 0.0000000000000000e+00  1.2396206708350848e-04 1.1742620383069177e-04 0.0000000000000000e+00  1.2140627981504552e-04 1.2254571174680011e-04 0.0000000000000000e+00  1.1654032907833859e-04 1.2376237408981788e-04 0.0000000000000000e+00  1.1321532149717588e-04 1.3304284063890657e-04 0.0000000000000000e+00  1.1535308445094503e-04 1.4097818095165645e-04 0.0000000000000000e+00  1.1463501228264714e-04 1.3703281733995219e-04 0.0000000000000000e+00  1.0907531873549912e-04 1.3291398486270833e-04 0.0000000000000000e+00  1.0196152949516677e-04 1.1899249046440264e-04 0.0000000000000000e+00  9.5598558195224704e-05 1.1395178284534146e-04 0.0000000000000000e+00  9.2213766456881787e-05 1.1288564102774776e-04 0.0000000000000000e+00  8.2398052540571943e-05 1.1057108620105204e-04 0.0000000000000000e+00  7.2100806952099208e-05 1.1075180674820585e-04 0.0000000000000000e+00  6.3261814103649717e-05 1.0315518015238921e-04 0.0000000000000000e+00  6.0413766043863718e-05 9.6176139778023529e-05 0.0000000000000000e+00  5.5728626173704602e-05 8.8506272611672300e-05 0.0000000000000000e+00  5.2576606016884650e-05 8.4206731108064768e-05 0.0000000000000000e+00  4.6652622108310159e-05 7.3918977908402265e-05 0.0000000000000000e+00  4.1749770134341962e-05 6.5598201447980209e-05 0.0000000000000000e+00  3.2863406313641092e-05 5.9574200482990597e-05 0.0000000000000000e+00  2.6375831313722613e-05 5.9468455645625885e-05 0.0000000000000000e+00  2.0823252472347110e-05 6.1537493371460904e-05 0.0000000000000000e+00  1.8244304203644842e-05 6.3775765539076824e-05 0.0000000000000000e+00  1.6933614957881647e-05 6.8228744056420912e-05 0.0000000000000000e+00  </DataArray> 
</PointData> 
</Piece>
</UnstructuredGrid>
</VTKFile>