<?xml version="1.0"?>
<VTKFile type="UnstructuredGrid"  version="0.1"  >
<UnstructuredGrid>
<Piece  NumberOfPoints="135" NumberOfCells="208">
<Points>
<DataArray  type="Float64"  NumberOfComponents="3"  format="ascii">1 1 0  1.076923076923077 1 0  1.153846153846154 1 0  1.230769230769231 1 0  1.307692307692308 1 0  1.384615384615385 1 0  1.461538461538462 1 0  1.538461538461538 1 0  1.615384615384615 1 0  1.692307692307692 1 0  1.769230769230769 1 0  1.846153846153846 1 0  1.923076923076923 1 0  2 1 0  2.076923076923077 1 0  2.153846153846154 1 0  2.230769230769231 1 0  2.307692307692307 1 0  2.384615384615385 1 0  2.461538461538462 1 0  2.538461538461538 1 0  2.615384615384615 1 0  2.692307692307693 1 0  2.769230769230769 1 0  2.846153846153846 1 0  2.923076923076923 1 0  3 1 0  1 1.0625 0  1.076923076923077 1.0625 0  1.153846153846154 1.0625 0  1.230769230769231 1.0625 0  1.307692307692308 1.0625 0  1.384615384615385 1.0625 0  1.461538461538462 1.0625 0  1.538461538461538 1.0625 0  1.615384615384615 1.0625 0  1.692307692307692 1.0625 0  1.769230769230769 1.0625 0  1.846153846153846 1.0625 0  1.923076923076923 1.0625 0  2 1.0625 0  2.076923076923077 1.0625 0  2.153846153846154 1.0625 0  2.230769230769231 1.0625 0  2.307692307692307 1.0625 0  2.384615384615385 1.0625 0  2.461538461538462 1.0625 0  2.538461538461538 1.0625 0  2.615384615384615 1.0625 0  2.692307692307693 1.0625 0  2.769230769230769 1.0625 0  2.846153846153846 1.0625 0  2.923076923076923 1.0625 0  3 1.0625 0  1 1.125 0  1.076923076923077 1.125 0  1.153846153846154 1.125 0  1.230769230769231 1.125 0  1.307692307692308 1.125 0  1.384615384615385 1.125 0  1.461538461538462 1.125 0  1.538461538461538 1.125 0  1.615384615384615 1.125 0  1.692307692307692 1.125 0  1.769230769230769 1.125 0  1.846153846153846 1.125 0  1.923076923076923 1.125 0  2 1.125 0  2.076923076923077 1.125 0  2.153846153846154 1.125 0  2.230769230769231 1.125 0  2.307692307692307 1.125 0  2.384615384615385 1.125 0  2.461538461538462 1.125 0  2.538461538461538 1.125 0  2.615384615384615 1.125 0  2.692307692307693 1.125 0  2.769230769230769 1.125 0  2.846153846153846 1.125 0  2.923076923076923 1.125 0  3 1.125 0  1 1.1875 0  1.076923076923077 1.1875 0  1.153846153846154 1.1875 0  1.230769230769231 1.1875 0  1.307692307692308 1.1875 0  1.384615384615385 1.1875 0  1.461538461538462 1.1875 0  1.538461538461538 1.1875 0  1.615384615384615 1.1875 0  1.692307692307692 1.1875 0  1.769230769230769 1.1875 0  1.846153846153846 1.1875 0  1.923076923076923 1.1875 0  2 1.1875 0  2.076923076923077 1.1875 0  2.153846153846154 1.1875 0  2.230769230769231 1.1875 0  2.307692307692307 1.1875 0  2.384615384615385 1.1875 0  2.461538461538462 1.1875 0  2.538461538461538 1.1875 0  2.615384615384615 1.1875 0  2.692307692307693 1.1875 0  2.769230769230769 1.1875 0  2.846153846153846 1.1875 0  2.923076923076923 1.1875 0  3 1.1875 0  1 1.25 0  1.076923076923077 1.25 0  1.153846153846154 1.25 0  1.230769230769231 1.25 0  1.307692307692308 1.25 0  1.384615384615385 1.25 0  1.461538461538462 1.25 0  1.538461538461538 1.25 0  1.615384615384615 1.25 0  1.692307692307692 1.25 0  1.769230769230769 1.25 0  1.846153846153846 1.25 0  1.923076923076923 1.25 0  2 1.25 0  2.076923076923077 1.25 0  2.153846153846154 1.25 0  2.230769230769231 1.25 0  2.307692307692307 1.25 0  2.384615384615385 1.25 0  2.461538461538462 1.25 0  2.538461538461538 1.25 0  2.615384615384615 1.25 0  2.692307692307693 1.25 0  2.769230769230769 1.25 0  2.846153846153846 1.25 0  2.923076923076923 1.25 0  3 1.25 0  </DataArray>
</Points>
<Cells>
<DataArray  type="UInt32"  Name="connectivity"  format="ascii">0 1 28  0 27 28  1 2 29  1 28 29  2 3 30  2 29 30  3 4 31  3 30 31  4 5 32  4 31 32  5 6 33  5 32 33  6 7 34  6 33 34  7 8 35  7 34 35  8 9 36  8 35 36  9 10 37  9 36 37  10 11 38  10 37 38  11 12 39  11 38 39  12 13 40  12 39 40  13 14 41  13 40 41  14 15 42  14 41 42  15 16 43  15 42 43  16 17 44  16 43 44  17 18 45  17 44 45  18 19 46  18 45 46  19 20 47  19 46 47  20 21 48  20 47 48  21 22 49  21 48 49  22 23 50  22 49 50  23 24 51  23 50 51  24 25 52  24 51 52  25 26 53  25 52 53  27 28 55  27 54 55  28 29 56  28 55 56  29 30 57  29 56 57  30 31 58  30 57 58  31 32 59  31 58 59  32 33 60  32 59 60  33 34 61  33 60 61  34 35 62  34 61 62  35 36 63  35 62 63  36 37 64  36 63 64  37 38 65  37 64 65  38 39 66  38 65 66  39 40 67  39 66 67  40 41 68  40 67 68  41 42 69  41 68 69  42 43 70  42 69 70  43 44 71  43 70 71  44 45 72  44 71 72  45 46 73  45 72 73  46 47 74  46 73 74  47 48 75  47 74 75  48 49 76  48 75 76  49 50 77  49 76 77  50 51 78  50 77 78  51 52 79  51 78 79  52 53 80  52 79 80  54 55 82  54 81 82  55 56 83  55 82 83  56 57 84  56 83 84  57 58 85  57 84 85  58 59 86  58 85 86  59 60 87  59 86 87  60 61 88  60 87 88  61 62 89  61 88 89  62 63 90  62 89 90  63 64 91  63 90 91  64 65 92  64 91 92  65 66 93  65 92 93  66 67 94  66 93 94  67 68 95  67 94 95  68 69 96  68 95 96  69 70 97  69 96 97  70 71 98  70 97 98  71 72 99  71 98 99  72 73 100  72 99 100  73 74 101  73 100 101  74 75 102  74 101 102  75 76 103  75 102 103  76 77 104  76 103 104  77 78 105  77 104 105  78 79 106  78 105 106  79 80 107  79 106 107  81 82 109  81 108 109  82 83 110  82 109 110  83 84 111  83 110 111  84 85 112  84 111 112  85 86 113  85 112 113  86 87 114  86 113 114  87 88 115  87 114 115  88 89 116  88 115 116  89 90 117  89 116 117  90 91 118  90 117 118  91 92 119  91 118 119  92 93 120  92 119 120  93 94 121  93 120 121  94 95 122  94 121 122  95 96 123  95 122 123  96 97 124  96 123 124  97 98 125  97 124 125  98 99 126  98 125 126  99 100 127  99 126 127  100 101 128  100 127 128  101 102 129  101 128 129  102 103 130  102 129 130  103 104 131  103 130 131  104 105 132  104 131 132  105 106 133  105 132 133  106 107 134  106 133 134  </DataArray>
<DataArray  type="UInt32"  Name="offsets"  format="ascii">3 6 9 12 15 18 21 24 27 30 33 36 39 42 45 48 51 54 57 60 63 66 69 72 75 78 81 84 87 90 93 96 99 102 105 108 111 114 117 120 123 126 129 132 135 138 141 144 147 150 153 156 159 162 165 168 171 174 177 180 183 186 189 192 195 198 201 204 207 210 213 216 219 222 225 228 231 234 237 240 243 246 249 252 255 258 261 264 267 270 273 276 279 282 285 288 291 294 297 300 303 306 309 312 315 318 321 324 327 330 333 336 339 342 345 348 351 354 357 360 363 366 369 372 375 378 381 384 387 390 393 396 399 402 405 408 411 414 417 420 423 426 429 432 435 438 441 444 447 450 453 456 459 462 465 468 471 474 477 480 483 486 489 492 495 498 501 504 507 510 513 516 519 522 525 528 531 534 537 540 543 546 549 552 555 558 561 564 567 570 573 576 579 582 585 588 591 594 597 600 603 606 609 612 615 618 621 624 </DataArray>
<DataArray  type="UInt8"  Name="types"  format="ascii">5 5 5 5 5 5 5 5 5 5 5 5 5 5 5 5 5 5 5 5 5 5 5 5 5 5 5 5 5 5 5 5 5 5 5 5 5 5 5 5 5 5 5 5 5 5 5 5 5 5 5 5 5 5 5 5 5 5 5 5 5 5 5 5 5 5 5 5 5 5 5 5 5 5 5 5 5 5 5 5 5 5 5 5 5 5 5 5 5 5 5 5 5 5 5 5 5 5 5 5 5 5 5 5 5 5 5 5 5 5 5 5 5 5 5 5 5 5 5 5 5 5 5 5 5 5 5 5 5 5 5 5 5 5 5 5 5 5 5 5 5 5 5 5 5 5 5 5 5 5 5 5 5 5 5 5 5 5 5 5 5 5 5 5 5 5 5 5 5 5 5 5 5 5 5 5 5 5 5 5 5 5 5 5 5 5 5 5 5 5 5 5 5 5 5 5 5 5 5 5 5 5 5 5 5 5 5 5 </DataArray>
</Cells>
<PointData  Vectors="Displacement"> 
<DataArray  type="Float64"  Name="Displacement"  NumberOfComponents="3" format="ascii">2.2804787522541869e-04 1.8544522933016896e-04 0.0000000000000000e+00  2.7525946638193760e-04 6.9550302963153991e-05 0.0000000000000000e+00  2.8967284209559360e-04 1.0496119837757661e-04 0.0000000000000000e+00  2.8451315202519210e-04 1.3191629979009202e-04 0.0000000000000000e+00  2.7444120958202030e-04 1.5017186103628540e-04 0.0000000000000000e+00  2.6295873198744200e-04 1.6308563845670164e-04 0.0000000000000000e+00  2.5167861555674265e-04 1.6735487707132408e-04 0.0000000000000000e+00  2.4122813353608853e-04 1.6839418006078680e-04 0.0000000000000000e+00  2.3054696250392781e-04 1.6761297969118558e-04 0.0000000000000000e+00  2.2175062009597294e-04 1.6379503606708134e-04 0.0000000000000000e+00  2.1113476379905845e-04 1.6227682609422020e-04 0.0000000000000000e+00  2.0088269629515770e-04 1.5832775782979473e-04 0.0000000000000000e+00  1.9432962579922548e-04 1.5427793341775921e-04 0.0000000000000000e+00  1.9012378951149204e-04 1.4598891586092261e-04 0.0000000000000000e+00  1.8636294261083937e-04 1.3853609524798100e-04 0.0000000000000000e+00  1.8428198680073152e-04 1.3379543406101974e-04 0.0000000000000000e+00  1.7999969568551459e-04 1.2803249857846954e-04 0.0000000000000000e+00  1.7460157290962060e-04 1.1768122086358695e-04 0.0000000000000000e+00  1.7674664547125794e-04 1.0963015059124635e-04 0.0000000000000000e+00  1.8106978444161974e-04 1.0006845343862101e-04 0.0000000000000000e+00  1.8935393962854718e-04 9.7337176842136211e-05 0.0000000000000000e+00  1.9001661627253134e-04 9.4735392474788881e-05 0.0000000000000000e+00  1.8907899898871352e-04 8.8708605200400609e-05 0.0000000000000000e+00  1.8894510948223679e-04 9.0363640263325677e-05 0.0000000000000000e+00  1.8720165219065978e-04 8.9909755079103243e-05 0.0000000000000000e+00  1.9587886251226709e-04 9.0953492854230255e-05 0.0000000000000000e+00  2.1041471684962019e-04 1.4288986337596222e-04 0.0000000000000000e+00  2.8241385132020516e-04 8.6132453096517426e-05 0.0000000000000000e+00  2.8047871137137735e-04 7.5325093613541955e-05 0.0000000000000000e+00  2.7046250594399879e-04 1.0443421718661903e-04 0.0000000000000000e+00  2.6555784484880418e-04 1.3376263610250300e-04 0.0000000000000000e+00  2.6057517348306334e-04 1.5364467274130340e-04 0.0000000000000000e+00  2.5400600548763902e-04 1.6579957042608555e-04 0.0000000000000000e+00  2.4932510175342638e-04 1.7248704411169683e-04 0.0000000000000000e+00  2.3963831555234592e-04 1.7387465069319279e-04 0.0000000000000000e+00  2.3132140638750233e-04 1.7209971741485936e-04 0.0000000000000000e+00  2.2295213095816586e-04 1.6972005940152780e-04 0.0000000000000000e+00  2.1242127380518200e-04 1.6880595628226481e-04 0.0000000000000000e+00  2.0384520318581187e-04 1.6315683814652714e-04 0.0000000000000000e+00  1.9957893801141394e-04 1.5624742121532730e-04 0.0000000000000000e+00  1.9635255264699398e-04 1.4703456601506112e-04 0.0000000000000000e+00  1.9314703154548217e-04 1.4051842069989803e-04 0.0000000000000000e+00  1.8979896144686540e-04 1.3541706645917191e-04 0.0000000000000000e+00  1.8528559215732536e-04 1.3051931283767311e-04 0.0000000000000000e+00  1.8374870189757388e-04 1.1783627481366828e-04 0.0000000000000000e+00  1.8579058267009479e-04 1.0653362808100876e-04 0.0000000000000000e+00  1.8950800131717832e-04 9.7828466535759961e-05 0.0000000000000000e+00  1.9014531055733353e-04 9.4080612476408397e-05 0.0000000000000000e+00  1.9435441112048487e-04 9.4615649874732222e-05 0.0000000000000000e+00  1.9397899206822198e-04 8.9915037502903502e-05 0.0000000000000000e+00  1.9179073507435794e-04 8.9943807328316100e-05 0.0000000000000000e+00  1.8961738596611136e-04 9.0721798005475259e-05 0.0000000000000000e+00  1.8424825859400407e-04 9.6012642026999505e-05 0.0000000000000000e+00  1.8550704528358185e-04 1.1809351140865729e-04 0.0000000000000000e+00  2.6075099014134882e-04 4.6048924988392220e-05 0.0000000000000000e+00  2.6502686497315633e-04 7.9244724442700980e-05 0.0000000000000000e+00  2.5544590134066544e-04 1.0792525336526671e-04 0.0000000000000000e+00  2.4911593529395611e-04 1.3530871409056367e-04 0.0000000000000000e+00  2.4763397542866631e-04 1.5432350641265654e-04 0.0000000000000000e+00  2.4512456641771448e-04 1.6753371721945265e-04 0.0000000000000000e+00  2.4332824757951175e-04 1.7564866541627106e-04 0.0000000000000000e+00  2.3706744717543444e-04 1.7832532022054763e-04 0.0000000000000000e+00  2.3142308291708774e-04 1.7666606413213064e-04 0.0000000000000000e+00  2.2439750847574918e-04 1.7593178588124180e-04 0.0000000000000000e+00  2.1515803994286462e-04 1.7442583578997938e-04 0.0000000000000000e+00  2.0933370673297506e-04 1.6618158714272089e-04 0.0000000000000000e+00  2.0427003069037187e-04 1.5608040855581544e-04 0.0000000000000000e+00  2.0189366344281940e-04 1.4683961542899567e-04 0.0000000000000000e+00  1.9947851029622704e-04 1.4135608418922556e-04 0.0000000000000000e+00  1.9647231390621997e-04 1.3671516087599748e-04 0.0000000000000000e+00  1.9179020230209836e-04 1.3229786526496344e-04 0.0000000000000000e+00  1.9004854813431618e-04 1.1864708954054779e-04 0.0000000000000000e+00  1.9082427417312249e-04 1.0376635433203234e-04 0.0000000000000000e+00  1.9452976089099898e-04 9.7909047111785787e-05 0.0000000000000000e+00  1.9411140588836275e-04 9.3607231166451907e-05 0.0000000000000000e+00  1.9609712559532722e-04 9.2530062743484152e-05 0.0000000000000000e+00  1.9562628150957673e-04 9.0326926053513077e-05 0.0000000000000000e+00  1.9222870353441726e-04 9.0724100212097159e-05 0.0000000000000000e+00  1.8887908838113984e-04 9.3867765678460008e-05 0.0000000000000000e+00  1.8267718667182113e-04 9.8976817729815660e-05 0.0000000000000000e+00  1.8289187310979545e-04 1.0493814341784767e-04 0.0000000000000000e+00  2.2904428109631983e-04 1.1575003111117926e-05 0.0000000000000000e+00  2.3510500617811590e-04 7.7070872877701697e-05 0.0000000000000000e+00  2.3190944848617775e-04 1.1263559420169044e-04 0.0000000000000000e+00  2.3161962709648839e-04 1.3645878266562144e-04 0.0000000000000000e+00  2.3470183815287510e-04 1.5405446958903773e-04 0.0000000000000000e+00  2.3650606411139825e-04 1.6818631875253144e-04 0.0000000000000000e+00  2.3620120144063250e-04 1.7825078651477727e-04 0.0000000000000000e+00  2.3411839867963725e-04 1.8243211030316835e-04 0.0000000000000000e+00  2.3062100758935330e-04 1.8075464725779712e-04 0.0000000000000000e+00  2.2527819214674755e-04 1.8172601231060740e-04 0.0000000000000000e+00  2.1871963188947879e-04 1.7849972227619294e-04 0.0000000000000000e+00  2.1514760428650672e-04 1.6993165999141610e-04 0.0000000000000000e+00  2.1087004050507696e-04 1.5848562803200196e-04 0.0000000000000000e+00  2.0796574133795311e-04 1.4784906056728543e-04 0.0000000000000000e+00  2.0651403568518073e-04 1.4354744695251956e-04 0.0000000000000000e+00  2.0351454325837691e-04 1.4006204515602807e-04 0.0000000000000000e+00  1.9982301417135432e-04 1.3582445204217398e-04 0.0000000000000000e+00  1.9772789093433398e-04 1.2072971393026923e-04 0.0000000000000000e+00  1.9774708060553363e-04 1.0387830304370163e-04 0.0000000000000000e+00  1.9965561841473167e-04 9.7278683466285086e-05 0.0000000000000000e+00  1.9851069588464968e-04 9.6857202644712247e-05 0.0000000000000000e+00  1.9544699860189990e-04 9.2124299236002053e-05 0.0000000000000000e+00  1.9380466733967595e-04 9.2115690722425025e-05 0.0000000000000000e+00  1.8912485181877341e-04 9.4230368059434626e-05 0.0000000000000000e+00  1.8892285123702824e-04 9.4355657659625625e-05 0.0000000000000000e+00  1.8568208730838646e-04 1.0165529752901190e-04 0.0000000000000000e+00  1.8467413334535962e-04 1.0259996844937801e-04 0.0000000000000000e+00  1.2833323369250104e-04 -8.2662377295947620e-05 0.0000000000000000e+00  1.8356896070653118e-04 7.4083769580783379e-05 0.0000000000000000e+00  2.0495869812921236e-04 1.1000112622397945e-04 0.0000000000000000e+00  2.1374758667608621e-04 1.3303628474185101e-04 0.0000000000000000e+00  2.2104516269184246e-04 1.5092976856295542e-04 0.0000000000000000e+00  2.2565395251186198e-04 1.6590092187558387e-04 0.0000000000000000e+00  2.3033063806860842e-04 1.7830053453475847e-04 0.0000000000000000e+00  2.3156230249724613e-04 1.8257576952981428e-04 0.0000000000000000e+00  2.2996932504209427e-04 1.8259854471215731e-04 0.0000000000000000e+00  2.2556265859498791e-04 1.8379127149312905e-04 0.0000000000000000e+00  2.2396909172327174e-04 1.8068720471830978e-04 0.0000000000000000e+00  2.2230873197557510e-04 1.7070869860155526e-04 0.0000000000000000e+00  2.1929568862257831e-04 1.6085129858629734e-04 0.0000000000000000e+00  2.1441455638110491e-04 1.4812376348322939e-04 0.0000000000000000e+00  2.0957456692385240e-04 1.4491483089236278e-04 0.0000000000000000e+00  2.0707375891781146e-04 1.4157062683992070e-04 0.0000000000000000e+00  2.0669096452113756e-04 1.3578226928373868e-04 0.0000000000000000e+00  2.1053747372518685e-04 1.1972930224419120e-04 0.0000000000000000e+00  2.0730789804082939e-04 1.0446756407437612e-04 0.0000000000000000e+00  2.0278667791412332e-04 9.7371300467618356e-05 0.0000000000000000e+00  1.9981462229198501e-04 9.8570361627673878e-05 0.0000000000000000e+00  1.9690330597841384e-04 9.5402596235842822e-05 0.0000000000000000e+00  1.9005812494643550e-04 9.4102218402095225e-05 0.0000000000000000e+00  1.8761986358396037e-04 9.5991590976154741e-05 0.0000000000000000e+00  1.8488746421870960e-04 9.3904095812263899e-05 0.0000000000000000e+00  1.8414105757888447e-04 1.0311524273264836e-04 0.0000000000000000e+00  1.8244520450335893e-04 1.0156131847638063e-04 0.0000000000000000e+00  </DataArray> 
</PointData> 
</Piece>
</UnstructuredGrid>
</VTKFile>