<?xml version="1.0"?>
<VTKFile type="UnstructuredGrid"  version="0.1"  >
<UnstructuredGrid>
<Piece  NumberOfPoints="135" NumberOfCells="208">
<Points>
<DataArray  type="Float64"  NumberOfComponents="3"  format="ascii">1 1 0  1.076923076923077 1 0  1.153846153846154 1 0  1.230769230769231 1 0  1.307692307692308 1 0  1.384615384615385 1 0  1.461538461538462 1 0  1.538461538461538 1 0  1.615384615384615 1 0  1.692307692307692 1 0  1.769230769230769 1 0  1.846153846153846 1 0  1.923076923076923 1 0  2 1 0  2.076923076923077 1 0  2.153846153846154 1 0  2.230769230769231 1 0  2.307692307692307 1 0  2.384615384615385 1 0  2.461538461538462 1 0  2.538461538461538 1 0  2.615384615384615 1 0  2.692307692307693 1 0  2.769230769230769 1 0  2.846153846153846 1 0  2.923076923076923 1 0  3 1 0  1 1.0625 0  1.076923076923077 1.0625 0  1.153846153846154 1.0625 0  1.230769230769231 1.0625 0  1.307692307692308 1.0625 0  1.384615384615385 1.0625 0  1.461538461538462 1.0625 0  1.538461538461538 1.0625 0  1.615384615384615 1.0625 0  1.692307692307692 1.0625 0  1.769230769230769 1.0625 0  1.846153846153846 1.0625 0  1.923076923076923 1.0625 0  2 1.0625 0  2.076923076923077 1.0625 0  2.153846153846154 1.0625 0  2.230769230769231 1.0625 0  2.307692307692307 1.0625 0  2.384615384615385 1.0625 0  2.461538461538462 1.0625 0  2.538461538461538 1.0625 0  2.615384615384615 1.0625 0  2.692307692307693 1.0625 0  2.769230769230769 1.0625 0  2.846153846153846 1.0625 0  2.923076923076923 1.0625 0  3 1.0625 0  1 1.125 0  1.076923076923077 1.125 0  1.153846153846154 1.125 0  1.230769230769231 1.125 0  1.307692307692308 1.125 0  1.384615384615385 1.125 0  1.461538461538462 1.125 0  1.538461538461538 1.125 0  1.615384615384615 1.125 0  1.692307692307692 1.125 0  1.769230769230769 1.125 0  1.846153846153846 1.125 0  1.923076923076923 1.125 0  2 1.125 0  2.076923076923077 1.125 0  2.153846153846154 1.125 0  2.230769230769231 1.125 0  2.307692307692307 1.125 0  2.384615384615385 1.125 0  2.461538461538462 1.125 0  2.538461538461538 1.125 0  2.615384615384615 1.125 0  2.692307692307693 1.125 0  2.769230769230769 1.125 0  2.846153846153846 1.125 0  2.923076923076923 1.125 0  3 1.125 0  1 1.1875 0  1.076923076923077 1.1875 0  1.153846153846154 1.1875 0  1.230769230769231 1.1875 0  1.307692307692308 1.1875 0  1.384615384615385 1.1875 0  1.461538461538462 1.1875 0  1.538461538461538 1.1875 0  1.615384615384615 1.1875 0  1.692307692307692 1.1875 0  1.769230769230769 1.1875 0  1.846153846153846 1.1875 0  1.923076923076923 1.1875 0  2 1.1875 0  2.076923076923077 1.1875 0  2.153846153846154 1.1875 0  2.230769230769231 1.1875 0  2.307692307692307 1.1875 0  2.384615384615385 1.1875 0  2.461538461538462 1.1875 0  2.538461538461538 1.1875 0  2.615384615384615 1.1875 0  2.692307692307693 1.1875 0  2.769230769230769 1.1875 0  2.846153846153846 1.1875 0  2.923076923076923 1.1875 0  3 1.1875 0  1 1.25 0  1.076923076923077 1.25 0  1.153846153846154 1.25 0  1.230769230769231 1.25 0  1.307692307692308 1.25 0  1.384615384615385 1.25 0  1.461538461538462 1.25 0  1.538461538461538 1.25 0  1.615384615384615 1.25 0  1.692307692307692 1.25 0  1.769230769230769 1.25 0  1.846153846153846 1.25 0  1.923076923076923 1.25 0  2 1.25 0  2.076923076923077 1.25 0  2.153846153846154 1.25 0  2.230769230769231 1.25 0  2.307692307692307 1.25 0  2.384615384615385 1.25 0  2.461538461538462 1.25 0  2.538461538461538 1.25 0  2.615384615384615 1.25 0  2.692307692307693 1.25 0  2.769230769230769 1.25 0  2.846153846153846 1.25 0  2.923076923076923 1.25 0  3 1.25 0  </DataArray>
</Points>
<Cells>
<DataArray  type="UInt32"  Name="connectivity"  format="ascii">0 1 28  0 27 28  1 2 29  1 28 29  2 3 30  2 29 30  3 4 31  3 30 31  4 5 32  4 31 32  5 6 33  5 32 33  6 7 34  6 33 34  7 8 35  7 34 35  8 9 36  8 35 36  9 10 37  9 36 37  10 11 38  10 37 38  11 12 39  11 38 39  12 13 40  12 39 40  13 14 41  13 40 41  14 15 42  14 41 42  15 16 43  15 42 43  16 17 44  16 43 44  17 18 45  17 44 45  18 19 46  18 45 46  19 20 47  19 46 47  20 21 48  20 47 48  21 22 49  21 48 49  22 23 50  22 49 50  23 24 51  23 50 51  24 25 52  24 51 52  25 26 53  25 52 53  27 28 55  27 54 55  28 29 56  28 55 56  29 30 57  29 56 57  30 31 58  30 57 58  31 32 59  31 58 59  32 33 60  32 59 60  33 34 61  33 60 61  34 35 62  34 61 62  35 36 63  35 62 63  36 37 64  36 63 64  37 38 65  37 64 65  38 39 66  38 65 66  39 40 67  39 66 67  40 41 68  40 67 68  41 42 69  41 68 69  42 43 70  42 69 70  43 44 71  43 70 71  44 45 72  44 71 72  45 46 73  45 72 73  46 47 74  46 73 74  47 48 75  47 74 75  48 49 76  48 75 76  49 50 77  49 76 77  50 51 78  50 77 78  51 52 79  51 78 79  52 53 80  52 79 80  54 55 82  54 81 82  55 56 83  55 82 83  56 57 84  56 83 84  57 58 85  57 84 85  58 59 86  58 85 86  59 60 87  59 86 87  60 61 88  60 87 88  61 62 89  61 88 89  62 63 90  62 89 90  63 64 91  63 90 91  64 65 92  64 91 92  65 66 93  65 92 93  66 67 94  66 93 94  67 68 95  67 94 95  68 69 96  68 95 96  69 70 97  69 96 97  70 71 98  70 97 98  71 72 99  71 98 99  72 73 100  72 99 100  73 74 101  73 100 101  74 75 102  74 101 102  75 76 103  75 102 103  76 77 104  76 103 104  77 78 105  77 104 105  78 79 106  78 105 106  79 80 107  79 106 107  81 82 109  81 108 109  82 83 110  82 109 110  83 84 111  83 110 111  84 85 112  84 111 112  85 86 113  85 112 113  86 87 114  86 113 114  87 88 115  87 114 115  88 89 116  88 115 116  89 90 117  89 116 117  90 91 118  90 117 118  91 92 119  91 118 119  92 93 120  92 119 120  93 94 121  93 120 121  94 95 122  94 121 122  95 96 123  95 122 123  96 97 124  96 123 124  97 98 125  97 124 125  98 99 126  98 125 126  99 100 127  99 126 127  100 101 128  100 127 128  101 102 129  101 128 129  102 103 130  102 129 130  103 104 131  103 130 131  104 105 132  104 131 132  105 106 133  105 132 133  106 107 134  106 133 134  </DataArray>
<DataArray  type="UInt32"  Name="offsets"  format="ascii">3 6 9 12 15 18 21 24 27 30 33 36 39 42 45 48 51 54 57 60 63 66 69 72 75 78 81 84 87 90 93 96 99 102 105 108 111 114 117 120 123 126 129 132 135 138 141 144 147 150 153 156 159 162 165 168 171 174 177 180 183 186 189 192 195 198 201 204 207 210 213 216 219 222 225 228 231 234 237 240 243 246 249 252 255 258 261 264 267 270 273 276 279 282 285 288 291 294 297 300 303 306 309 312 315 318 321 324 327 330 333 336 339 342 345 348 351 354 357 360 363 366 369 372 375 378 381 384 387 390 393 396 399 402 405 408 411 414 417 420 423 426 429 432 435 438 441 444 447 450 453 456 459 462 465 468 471 474 477 480 483 486 489 492 495 498 501 504 507 510 513 516 519 522 525 528 531 534 537 540 543 546 549 552 555 558 561 564 567 570 573 576 579 582 585 588 591 594 597 600 603 606 609 612 615 618 621 624 </DataArray>
<DataArray  type="UInt8"  Name="types"  format="ascii">5 5 5 5 5 5 5 5 5 5 5 5 5 5 5 5 5 5 5 5 5 5 5 5 5 5 5 5 5 5 5 5 5 5 5 5 5 5 5 5 5 5 5 5 5 5 5 5 5 5 5 5 5 5 5 5 5 5 5 5 5 5 5 5 5 5 5 5 5 5 5 5 5 5 5 5 5 5 5 5 5 5 5 5 5 5 5 5 5 5 5 5 5 5 5 5 5 5 5 5 5 5 5 5 5 5 5 5 5 5 5 5 5 5 5 5 5 5 5 5 5 5 5 5 5 5 5 5 5 5 5 5 5 5 5 5 5 5 5 5 5 5 5 5 5 5 5 5 5 5 5 5 5 5 5 5 5 5 5 5 5 5 5 5 5 5 5 5 5 5 5 5 5 5 5 5 5 5 5 5 5 5 5 5 5 5 5 5 5 5 5 5 5 5 5 5 5 5 5 5 5 5 5 5 5 5 5 5 </DataArray>
</Cells>
<PointData  Vectors="Displacement"> 
<DataArray  type="Float64"  Name="Displacement"  NumberOfComponents="3" format="ascii">5.3524681398190528e-04 1.6180639153196228e-04 0.0000000000000000e+00  5.8014713235005023e-04 6.4637945535385704e-05 0.0000000000000000e+00  5.9247112957888106e-04 1.1800055617647099e-04 0.0000000000000000e+00  5.8436634087501507e-04 1.5879297964216358e-04 0.0000000000000000e+00  5.6991429705253115e-04 1.8943334203441612e-04 0.0000000000000000e+00  5.5502699165890291e-04 2.1086567832521088e-04 0.0000000000000000e+00  5.4108913466329703e-04 2.2491942763563629e-04 0.0000000000000000e+00  5.2925443875954817e-04 2.3116646264824232e-04 0.0000000000000000e+00  5.1794477853490896e-04 2.3685856191284706e-04 0.0000000000000000e+00  5.0787499387302333e-04 2.3846793983368526e-04 0.0000000000000000e+00  4.9882237750322150e-04 2.3781779968478587e-04 0.0000000000000000e+00  4.8877105637125287e-04 2.3226653428340668e-04 0.0000000000000000e+00  4.7912010165562064e-04 2.2639669958840621e-04 0.0000000000000000e+00  4.7244581328975433e-04 2.1880702419631640e-04 0.0000000000000000e+00  4.6981200629203087e-04 2.0844447446267375e-04 0.0000000000000000e+00  4.6838924806170902e-04 2.0382949586377145e-04 0.0000000000000000e+00  4.6617864571428595e-04 1.9427156263091566e-04 0.0000000000000000e+00  4.6581317285817312e-04 1.8732907355808857e-04 0.0000000000000000e+00  4.6423679600260219e-04 1.7985036019603414e-04 0.0000000000000000e+00  4.6399632925756202e-04 1.7313993285773111e-04 0.0000000000000000e+00  4.6374685623067882e-04 1.7049793463881004e-04 0.0000000000000000e+00  4.6389154208398547e-04 1.6774718625605275e-04 0.0000000000000000e+00  4.6614650393579307e-04 1.6610189425849794e-04 0.0000000000000000e+00  4.6903830261505115e-04 1.6829970091253958e-04 0.0000000000000000e+00  4.7307846764169114e-04 1.7284951381806780e-04 0.0000000000000000e+00  4.8147398359260694e-04 1.8025830739046701e-04 0.0000000000000000e+00  5.0070209536324834e-04 2.4445215038976687e-04 0.0000000000000000e+00  5.7162517120653818e-04 6.3045442119068654e-05 0.0000000000000000e+00  5.7137089681625209e-04 7.1061373812829015e-05 0.0000000000000000e+00  5.6068894900410105e-04 1.1822140566024951e-04 0.0000000000000000e+00  5.5510317179871939e-04 1.6180011007848312e-04 0.0000000000000000e+00  5.4767170324610318e-04 1.9486942433323616e-04 0.0000000000000000e+00  5.3970395519408951e-04 2.1669591040399458e-04 0.0000000000000000e+00  5.3122019528603344e-04 2.3000913799023221e-04 0.0000000000000000e+00  5.2357982283293052e-04 2.3715211103124170e-04 0.0000000000000000e+00  5.1426210343655644e-04 2.4236114489835348e-04 0.0000000000000000e+00  5.0686598196836850e-04 2.4310342002206655e-04 0.0000000000000000e+00  4.9938481848665266e-04 2.4200253733175806e-04 0.0000000000000000e+00  4.9171438216420076e-04 2.3793311049296833e-04 0.0000000000000000e+00  4.8409276626895691e-04 2.3131965338576732e-04 0.0000000000000000e+00  4.7990518726191098e-04 2.2071266050516252e-04 0.0000000000000000e+00  4.7760908423242137e-04 2.1001517572668844e-04 0.0000000000000000e+00  4.7534894981695464e-04 2.0477856923168655e-04 0.0000000000000000e+00  4.7371080830086235e-04 1.9575286196223262e-04 0.0000000000000000e+00  4.7100815882575233e-04 1.8796772164232122e-04 0.0000000000000000e+00  4.7084352008339999e-04 1.7972134792958093e-04 0.0000000000000000e+00  4.6863158048196881e-04 1.7451227040529821e-04 0.0000000000000000e+00  4.6703851190614169e-04 1.7030037917935869e-04 0.0000000000000000e+00  4.6740412406238492e-04 1.6692383598620892e-04 0.0000000000000000e+00  4.6602226142525234e-04 1.6591431159969675e-04 0.0000000000000000e+00  4.6628990926559429e-04 1.6750345429248598e-04 0.0000000000000000e+00  4.6725143682232431e-04 1.7225641904131952e-04 0.0000000000000000e+00  4.6383272342377885e-04 1.8637600871243234e-04 0.0000000000000000e+00  4.6457014320433124e-04 2.1778226478852514e-04 0.0000000000000000e+00  5.3816306927226157e-04 2.2918081981207904e-05 0.0000000000000000e+00  5.4405671941630106e-04 7.5824037122592243e-05 0.0000000000000000e+00  5.3433444453188550e-04 1.2273290681805182e-04 0.0000000000000000e+00  5.2840446979396838e-04 1.6465314572171473e-04 0.0000000000000000e+00  5.2524554864245582e-04 1.9668418387653125e-04 0.0000000000000000e+00  5.2331968907343704e-04 2.1937433315514829e-04 0.0000000000000000e+00  5.1914127120591697e-04 2.3288766016053532e-04 0.0000000000000000e+00  5.1531846302793909e-04 2.4089007092839218e-04 0.0000000000000000e+00  5.0981622122139457e-04 2.4518073595887621e-04 0.0000000000000000e+00  5.0549595617180732e-04 2.4730123863656088e-04 0.0000000000000000e+00  4.9868718734590511e-04 2.4532594555947437e-04 0.0000000000000000e+00  4.9410673419630988e-04 2.4166193340819747e-04 0.0000000000000000e+00  4.8897414115888936e-04 2.3390153133467516e-04 0.0000000000000000e+00  4.8757240111243198e-04 2.2124895812838675e-04 0.0000000000000000e+00  4.8433829977765106e-04 2.1167485274664513e-04 0.0000000000000000e+00  4.8197131578909478e-04 2.0599795770100615e-04 0.0000000000000000e+00  4.7975903047463102e-04 1.9628595986135461e-04 0.0000000000000000e+00  4.7653836798326418e-04 1.8833902616833319e-04 0.0000000000000000e+00  4.7440469074427725e-04 1.7943199111715959e-04 0.0000000000000000e+00  4.7013798619265079e-04 1.7573131977535901e-04 0.0000000000000000e+00  4.6794698465569726e-04 1.7039601682224980e-04 0.0000000000000000e+00  4.6630070073240575e-04 1.6713850969818616e-04 0.0000000000000000e+00  4.6542525507522065e-04 1.6667627265923464e-04 0.0000000000000000e+00  4.6358972640542792e-04 1.6824324837759775e-04 0.0000000000000000e+00  4.6068022815659240e-04 1.7517813343435811e-04 0.0000000000000000e+00  4.5542052759390921e-04 1.9104320771123366e-04 0.0000000000000000e+00  4.5435225362306237e-04 2.0794285880924396e-04 0.0000000000000000e+00  4.9255541666613019e-04 -1.4550970700792892e-05 0.0000000000000000e+00  5.0116093823622499e-04 7.3272591370348957e-05 0.0000000000000000e+00  4.9772413487290446e-04 1.2683636368919748e-04 0.0000000000000000e+00  5.0005876445843617e-04 1.6548921758089064e-04 0.0000000000000000e+00  5.0267227154688016e-04 1.9575419811723727e-04 0.0000000000000000e+00  5.0568434293717210e-04 2.1874300291149364e-04 0.0000000000000000e+00  5.0647961770177005e-04 2.3306581678720362e-04 0.0000000000000000e+00  5.0704209728531953e-04 2.4201829236490129e-04 0.0000000000000000e+00  5.0474708694839146e-04 2.4684054591523930e-04 0.0000000000000000e+00  5.0265463372410309e-04 2.4919222990799382e-04 0.0000000000000000e+00  5.0065558861104318e-04 2.4674741633367285e-04 0.0000000000000000e+00  4.9812210838022562e-04 2.4276054152725217e-04 0.0000000000000000e+00  4.9552359866429023e-04 2.3537405394683658e-04 0.0000000000000000e+00  4.9299405553923301e-04 2.2156605260411358e-04 0.0000000000000000e+00  4.8982935574446015e-04 2.1289966215599958e-04 0.0000000000000000e+00  4.8722149497950408e-04 2.0728435317336085e-04 0.0000000000000000e+00  4.8620752501008971e-04 1.9697268967317389e-04 0.0000000000000000e+00  4.8279510794277858e-04 1.8869901398690884e-04 0.0000000000000000e+00  4.7767700482510481e-04 1.8176901143713282e-04 0.0000000000000000e+00  4.7194719839470525e-04 1.7690688764814577e-04 0.0000000000000000e+00  4.6915085629568165e-04 1.7032231117381679e-04 0.0000000000000000e+00  4.6656081117692530e-04 1.6797310940295908e-04 0.0000000000000000e+00  4.6269207189881970e-04 1.6583226650022587e-04 0.0000000000000000e+00  4.5931925995717024e-04 1.6922208606786888e-04 0.0000000000000000e+00  4.5380925949860360e-04 1.7842319413317954e-04 0.0000000000000000e+00  4.4884386760803320e-04 1.9300548788980272e-04 0.0000000000000000e+00  4.4719225461047627e-04 2.0385378156240311e-04 0.0000000000000000e+00  3.7441065521582446e-04 -1.1124776540496766e-04 0.0000000000000000e+00  4.3459586281260681e-04 7.0040732826820237e-05 0.0000000000000000e+00  4.5838151263695069e-04 1.2419501620203896e-04 0.0000000000000000e+00  4.7166880062519533e-04 1.6196803386502221e-04 0.0000000000000000e+00  4.8065071934408647e-04 1.9191959043567019e-04 0.0000000000000000e+00  4.8945408845792898e-04 2.1678333732915215e-04 0.0000000000000000e+00  4.9532136649185939e-04 2.3235938254541626e-04 0.0000000000000000e+00  4.9919950385163942e-04 2.4174587012243019e-04 0.0000000000000000e+00  5.0156835181596154e-04 2.4860542128688770e-04 0.0000000000000000e+00  5.0226345037818003e-04 2.5008930316009766e-04 0.0000000000000000e+00  5.0232361907989916e-04 2.4743104538731565e-04 0.0000000000000000e+00  5.0259267245434205e-04 2.4485686860005468e-04 0.0000000000000000e+00  5.0303548240308166e-04 2.3736412194960317e-04 0.0000000000000000e+00  5.0065549255536837e-04 2.2372946180363991e-04 0.0000000000000000e+00  4.9558858229251850e-04 2.1566239857069997e-04 0.0000000000000000e+00  4.9396344602399946e-04 2.0870142719182596e-04 0.0000000000000000e+00  4.9213164256623561e-04 1.9790157794895711e-04 0.0000000000000000e+00  4.8804250583850845e-04 1.9216035064775685e-04 0.0000000000000000e+00  4.8246016339895066e-04 1.8563776563588870e-04 0.0000000000000000e+00  4.7727411355282662e-04 1.7982149461388361e-04 0.0000000000000000e+00  4.7298541837817665e-04 1.7226825241494683e-04 0.0000000000000000e+00  4.6770185269198533e-04 1.7143456266109134e-04 0.0000000000000000e+00  4.6039999426577367e-04 1.6831881250995511e-04 0.0000000000000000e+00  4.5197630075506000e-04 1.7317704125565544e-04 0.0000000000000000e+00  4.4418182877096579e-04 1.8231366630674231e-04 0.0000000000000000e+00  4.3968947996627348e-04 1.9499524017359596e-04 0.0000000000000000e+00  4.4076563786729780e-04 2.0356721623568399e-04 0.0000000000000000e+00  </DataArray> 
</PointData> 
</Piece>
</UnstructuredGrid>
</VTKFile>