<?xml version="1.0"?>
<VTKFile type="UnstructuredGrid"  version="0.1"  >
<UnstructuredGrid>
<Piece  NumberOfPoints="135" NumberOfCells="208">
<Points>
<DataArray  type="Float64"  NumberOfComponents="3"  format="ascii">1 1 0  1.076923076923077 1 0  1.153846153846154 1 0  1.230769230769231 1 0  1.307692307692308 1 0  1.384615384615385 1 0  1.461538461538462 1 0  1.538461538461538 1 0  1.615384615384615 1 0  1.692307692307692 1 0  1.769230769230769 1 0  1.846153846153846 1 0  1.923076923076923 1 0  2 1 0  2.076923076923077 1 0  2.153846153846154 1 0  2.230769230769231 1 0  2.307692307692307 1 0  2.384615384615385 1 0  2.461538461538462 1 0  2.538461538461538 1 0  2.615384615384615 1 0  2.692307692307693 1 0  2.769230769230769 1 0  2.846153846153846 1 0  2.923076923076923 1 0  3 1 0  1 1.0625 0  1.076923076923077 1.0625 0  1.153846153846154 1.0625 0  1.230769230769231 1.0625 0  1.307692307692308 1.0625 0  1.384615384615385 1.0625 0  1.461538461538462 1.0625 0  1.538461538461538 1.0625 0  1.615384615384615 1.0625 0  1.692307692307692 1.0625 0  1.769230769230769 1.0625 0  1.846153846153846 1.0625 0  1.923076923076923 1.0625 0  2 1.0625 0  2.076923076923077 1.0625 0  2.153846153846154 1.0625 0  2.230769230769231 1.0625 0  2.307692307692307 1.0625 0  2.384615384615385 1.0625 0  2.461538461538462 1.0625 0  2.538461538461538 1.0625 0  2.615384615384615 1.0625 0  2.692307692307693 1.0625 0  2.769230769230769 1.0625 0  2.846153846153846 1.0625 0  2.923076923076923 1.0625 0  3 1.0625 0  1 1.125 0  1.076923076923077 1.125 0  1.153846153846154 1.125 0  1.230769230769231 1.125 0  1.307692307692308 1.125 0  1.384615384615385 1.125 0  1.461538461538462 1.125 0  1.538461538461538 1.125 0  1.615384615384615 1.125 0  1.692307692307692 1.125 0  1.769230769230769 1.125 0  1.846153846153846 1.125 0  1.923076923076923 1.125 0  2 1.125 0  2.076923076923077 1.125 0  2.153846153846154 1.125 0  2.230769230769231 1.125 0  2.307692307692307 1.125 0  2.384615384615385 1.125 0  2.461538461538462 1.125 0  2.538461538461538 1.125 0  2.615384615384615 1.125 0  2.692307692307693 1.125 0  2.769230769230769 1.125 0  2.846153846153846 1.125 0  2.923076923076923 1.125 0  3 1.125 0  1 1.1875 0  1.076923076923077 1.1875 0  1.153846153846154 1.1875 0  1.230769230769231 1.1875 0  1.307692307692308 1.1875 0  1.384615384615385 1.1875 0  1.461538461538462 1.1875 0  1.538461538461538 1.1875 0  1.615384615384615 1.1875 0  1.692307692307692 1.1875 0  1.769230769230769 1.1875 0  1.846153846153846 1.1875 0  1.923076923076923 1.1875 0  2 1.1875 0  2.076923076923077 1.1875 0  2.153846153846154 1.1875 0  2.230769230769231 1.1875 0  2.307692307692307 1.1875 0  2.384615384615385 1.1875 0  2.461538461538462 1.1875 0  2.538461538461538 1.1875 0  2.615384615384615 1.1875 0  2.692307692307693 1.1875 0  2.769230769230769 1.1875 0  2.846153846153846 1.1875 0  2.923076923076923 1.1875 0  3 1.1875 0  1 1.25 0  1.076923076923077 1.25 0  1.153846153846154 1.25 0  1.230769230769231 1.25 0  1.307692307692308 1.25 0  1.384615384615385 1.25 0  1.461538461538462 1.25 0  1.538461538461538 1.25 0  1.615384615384615 1.25 0  1.692307692307692 1.25 0  1.769230769230769 1.25 0  1.846153846153846 1.25 0  1.923076923076923 1.25 0  2 1.25 0  2.076923076923077 1.25 0  2.153846153846154 1.25 0  2.230769230769231 1.25 0  2.307692307692307 1.25 0  2.384615384615385 1.25 0  2.461538461538462 1.25 0  2.538461538461538 1.25 0  2.615384615384615 1.25 0  2.692307692307693 1.25 0  2.769230769230769 1.25 0  2.846153846153846 1.25 0  2.923076923076923 1.25 0  3 1.25 0  </DataArray>
</Points>
<Cells>
<DataArray  type="UInt32"  Name="connectivity"  format="ascii">0 1 28  0 27 28  1 2 29  1 28 29  2 3 30  2 29 30  3 4 31  3 30 31  4 5 32  4 31 32  5 6 33  5 32 33  6 7 34  6 33 34  7 8 35  7 34 35  8 9 36  8 35 36  9 10 37  9 36 37  10 11 38  10 37 38  11 12 39  11 38 39  12 13 40  12 39 40  13 14 41  13 40 41  14 15 42  14 41 42  15 16 43  15 42 43  16 17 44  16 43 44  17 18 45  17 44 45  18 19 46  18 45 46  19 20 47  19 46 47  20 21 48  20 47 48  21 22 49  21 48 49  22 23 50  22 49 50  23 24 51  23 50 51  24 25 52  24 51 52  25 26 53  25 52 53  27 28 55  27 54 55  28 29 56  28 55 56  29 30 57  29 56 57  30 31 58  30 57 58  31 32 59  31 58 59  32 33 60  32 59 60  33 34 61  33 60 61  34 35 62  34 61 62  35 36 63  35 62 63  36 37 64  36 63 64  37 38 65  37 64 65  38 39 66  38 65 66  39 40 67  39 66 67  40 41 68  40 67 68  41 42 69  41 68 69  42 43 70  42 69 70  43 44 71  43 70 71  44 45 72  44 71 72  45 46 73  45 72 73  46 47 74  46 73 74  47 48 75  47 74 75  48 49 76  48 75 76  49 50 77  49 76 77  50 51 78  50 77 78  51 52 79  51 78 79  52 53 80  52 79 80  54 55 82  54 81 82  55 56 83  55 82 83  56 57 84  56 83 84  57 58 85  57 84 85  58 59 86  58 85 86  59 60 87  59 86 87  60 61 88  60 87 88  61 62 89  61 88 89  62 63 90  62 89 90  63 64 91  63 90 91  64 65 92  64 91 92  65 66 93  65 92 93  66 67 94  66 93 94  67 68 95  67 94 95  68 69 96  68 95 96  69 70 97  69 96 97  70 71 98  70 97 98  71 72 99  71 98 99  72 73 100  72 99 100  73 74 101  73 100 101  74 75 102  74 101 102  75 76 103  75 102 103  76 77 104  76 103 104  77 78 105  77 104 105  78 79 106  78 105 106  79 80 107  79 106 107  81 82 109  81 108 109  82 83 110  82 109 110  83 84 111  83 110 111  84 85 112  84 111 112  85 86 113  85 112 113  86 87 114  86 113 114  87 88 115  87 114 115  88 89 116  88 115 116  89 90 117  89 116 117  90 91 118  90 117 118  91 92 119  91 118 119  92 93 120  92 119 120  93 94 121  93 120 121  94 95 122  94 121 122  95 96 123  95 122 123  96 97 124  96 123 124  97 98 125  97 124 125  98 99 126  98 125 126  99 100 127  99 126 127  100 101 128  100 127 128  101 102 129  101 128 129  102 103 130  102 129 130  103 104 131  103 130 131  104 105 132  104 131 132  105 106 133  105 132 133  106 107 134  106 133 134  </DataArray>
<DataArray  type="UInt32"  Name="offsets"  format="ascii">3 6 9 12 15 18 21 24 27 30 33 36 39 42 45 48 51 54 57 60 63 66 69 72 75 78 81 84 87 90 93 96 99 102 105 108 111 114 117 120 123 126 129 132 135 138 141 144 147 150 153 156 159 162 165 168 171 174 177 180 183 186 189 192 195 198 201 204 207 210 213 216 219 222 225 228 231 234 237 240 243 246 249 252 255 258 261 264 267 270 273 276 279 282 285 288 291 294 297 300 303 306 309 312 315 318 321 324 327 330 333 336 339 342 345 348 351 354 357 360 363 366 369 372 375 378 381 384 387 390 393 396 399 402 405 408 411 414 417 420 423 426 429 432 435 438 441 444 447 450 453 456 459 462 465 468 471 474 477 480 483 486 489 492 495 498 501 504 507 510 513 516 519 522 525 528 531 534 537 540 543 546 549 552 555 558 561 564 567 570 573 576 579 582 585 588 591 594 597 600 603 606 609 612 615 618 621 624 </DataArray>
<DataArray  type="UInt8"  Name="types"  format="ascii">5 5 5 5 5 5 5 5 5 5 5 5 5 5 5 5 5 5 5 5 5 5 5 5 5 5 5 5 5 5 5 5 5 5 5 5 5 5 5 5 5 5 5 5 5 5 5 5 5 5 5 5 5 5 5 5 5 5 5 5 5 5 5 5 5 5 5 5 5 5 5 5 5 5 5 5 5 5 5 5 5 5 5 5 5 5 5 5 5 5 5 5 5 5 5 5 5 5 5 5 5 5 5 5 5 5 5 5 5 5 5 5 5 5 5 5 5 5 5 5 5 5 5 5 5 5 5 5 5 5 5 5 5 5 5 5 5 5 5 5 5 5 5 5 5 5 5 5 5 5 5 5 5 5 5 5 5 5 5 5 5 5 5 5 5 5 5 5 5 5 5 5 5 5 5 5 5 5 5 5 5 5 5 5 5 5 5 5 5 5 5 5 5 5 5 5 5 5 5 5 5 5 5 5 5 5 5 5 </DataArray>
</Cells>
<PointData  Vectors="Displacement"> 
<DataArray  type="Float64"  Name="Displacement"  NumberOfComponents="3" format="ascii">3.3150892962757826e-04 1.8424262781854876e-04 0.0000000000000000e+00  3.7572611031106654e-04 7.2092032551651099e-05 0.0000000000000000e+00  3.9036580842713258e-04 1.1146027826366608e-04 0.0000000000000000e+00  3.8746265590913363e-04 1.4476733858720996e-04 0.0000000000000000e+00  3.7590046988539565e-04 1.6964861222813903e-04 0.0000000000000000e+00  3.6662961847073788e-04 1.8602198501980105e-04 0.0000000000000000e+00  3.5537585479171013e-04 1.9773950121881669e-04 0.0000000000000000e+00  3.4737955768051677e-04 2.0150244893721758e-04 0.0000000000000000e+00  3.4043655851425904e-04 2.0541152047690687e-04 0.0000000000000000e+00  3.3395044408047813e-04 2.0432670724553455e-04 0.0000000000000000e+00  3.2788493841780881e-04 2.0092994867452015e-04 0.0000000000000000e+00  3.2301115986086695e-04 1.9386846170694761e-04 0.0000000000000000e+00  3.1798139663054455e-04 1.8625867865197421e-04 0.0000000000000000e+00  3.1430378092833371e-04 1.7626821087444531e-04 0.0000000000000000e+00  3.1064062206636749e-04 1.6871062954925596e-04 0.0000000000000000e+00  3.1031344455378950e-04 1.6171023721119605e-04 0.0000000000000000e+00  3.0828043207671785e-04 1.5572977771877904e-04 0.0000000000000000e+00  3.0667498344046578e-04 1.4554612848603285e-04 0.0000000000000000e+00  3.0848671711597317e-04 1.3730562679209352e-04 0.0000000000000000e+00  3.0964742771921418e-04 1.3381588882539834e-04 0.0000000000000000e+00  3.0710386869462527e-04 1.3022478264288731e-04 0.0000000000000000e+00  3.0841584629122490e-04 1.2797512200098145e-04 0.0000000000000000e+00  3.1128805350319504e-04 1.2618340658046036e-04 0.0000000000000000e+00  3.1250294183495083e-04 1.2216019004197633e-04 0.0000000000000000e+00  3.1926361486269160e-04 1.2150534870290200e-04 0.0000000000000000e+00  3.2376015053095698e-04 1.2649399734521367e-04 0.0000000000000000e+00  3.4067517317073272e-04 1.8717743753242052e-04 0.0000000000000000e+00  3.7701705550040364e-04 8.3306035808182650e-05 0.0000000000000000e+00  3.7673852937753697e-04 7.7388639032131327e-05 0.0000000000000000e+00  3.6818447377881492e-04 1.1019080795178856e-04 0.0000000000000000e+00  3.6444673701076935e-04 1.4618915655938454e-04 0.0000000000000000e+00  3.5985365014695373e-04 1.7279091253076059e-04 0.0000000000000000e+00  3.5458681665179339e-04 1.9035691317755010e-04 0.0000000000000000e+00  3.4896213952999549e-04 2.0132387021096763e-04 0.0000000000000000e+00  3.4346086302024703e-04 2.0507554023407458e-04 0.0000000000000000e+00  3.3924952929902249e-04 2.0744774536412500e-04 0.0000000000000000e+00  3.3525620152554232e-04 2.0584339376210570e-04 0.0000000000000000e+00  3.3229328927358246e-04 2.0334814931721306e-04 0.0000000000000000e+00  3.2751961234876281e-04 1.9511656883098325e-04 0.0000000000000000e+00  3.2407629460139587e-04 1.8777784923581031e-04 0.0000000000000000e+00  3.2068909613956162e-04 1.7798388778373874e-04 0.0000000000000000e+00  3.1739746150296233e-04 1.6895266460281556e-04 0.0000000000000000e+00  3.1572618768715868e-04 1.6132639061327140e-04 0.0000000000000000e+00  3.1594651872028591e-04 1.5590955612279305e-04 0.0000000000000000e+00  3.1442993328503776e-04 1.4510706376794300e-04 0.0000000000000000e+00  3.1343009506952730e-04 1.3646153330810272e-04 0.0000000000000000e+00  3.1317004206895806e-04 1.3387145435361222e-04 0.0000000000000000e+00  3.1198899140140452e-04 1.3062947674069420e-04 0.0000000000000000e+00  3.1130181834718238e-04 1.2622094562072798e-04 0.0000000000000000e+00  3.1320421172623093e-04 1.2536679291335834e-04 0.0000000000000000e+00  3.1287373332760656e-04 1.2228274613350937e-04 0.0000000000000000e+00  3.1257429573200966e-04 1.2071216384380813e-04 0.0000000000000000e+00  3.0956637953337304e-04 1.3552392146290665e-04 0.0000000000000000e+00  3.0966861495381099e-04 1.6005454150359061e-04 0.0000000000000000e+00  3.5331788813205669e-04 4.1941919857257425e-05 0.0000000000000000e+00  3.6002251353681647e-04 8.1368554222541881e-05 0.0000000000000000e+00  3.5045000743522559e-04 1.1399605117740704e-04 0.0000000000000000e+00  3.4513104053056375e-04 1.4746280615074496e-04 0.0000000000000000e+00  3.4355756855477393e-04 1.7388431601920849e-04 0.0000000000000000e+00  3.4279967492376089e-04 1.9215623351186685e-04 0.0000000000000000e+00  3.4099803700619207e-04 2.0347939576070826e-04 0.0000000000000000e+00  3.3927961606976156e-04 2.0712415569766623e-04 0.0000000000000000e+00  3.3826865734140122e-04 2.0770612332508440e-04 0.0000000000000000e+00  3.3657929534914064e-04 2.0735278271973275e-04 0.0000000000000000e+00  3.3596445225945982e-04 2.0546227483641985e-04 0.0000000000000000e+00  3.3264926494347668e-04 1.9721546227395134e-04 0.0000000000000000e+00  3.3045202278014752e-04 1.8912113581496837e-04 0.0000000000000000e+00  3.2719866707062233e-04 1.7882078042710632e-04 0.0000000000000000e+00  3.2489256310663594e-04 1.7085244794307563e-04 0.0000000000000000e+00  3.2162462315972305e-04 1.6244566037877881e-04 0.0000000000000000e+00  3.2086785590856187e-04 1.5502931741266817e-04 0.0000000000000000e+00  3.2009343547194363e-04 1.4517029339685886e-04 0.0000000000000000e+00  3.1901226849672087e-04 1.3788462360754056e-04 0.0000000000000000e+00  3.1530656543540315e-04 1.3374149063162473e-04 0.0000000000000000e+00  3.1508378672155977e-04 1.3141438657523875e-04 0.0000000000000000e+00  3.1351344905824704e-04 1.2699496719851047e-04 0.0000000000000000e+00  3.1486836296815233e-04 1.2622151154706917e-04 0.0000000000000000e+00  3.1312459062885270e-04 1.2469521313989698e-04 0.0000000000000000e+00  3.0990696772268458e-04 1.2228581914322498e-04 0.0000000000000000e+00  3.0609434797472176e-04 1.3856390028200234e-04 0.0000000000000000e+00  3.0704596691020261e-04 1.5055714676011611e-04 0.0000000000000000e+00  3.1757288694168932e-04 3.5870656491036279e-06 0.0000000000000000e+00  3.2605190037437168e-04 7.7379251851406597e-05 0.0000000000000000e+00  3.2214114759030469e-04 1.1943722333693372e-04 0.0000000000000000e+00  3.2317935761329980e-04 1.4824883875609509e-04 0.0000000000000000e+00  3.2670514982834011e-04 1.7270654425047025e-04 0.0000000000000000e+00  3.3138920174165427e-04 1.9313918263307085e-04 0.0000000000000000e+00  3.3287734689090107e-04 2.0420713592166943e-04 0.0000000000000000e+00  3.3468935958332188e-04 2.0734768608833673e-04 0.0000000000000000e+00  3.3803958840585507e-04 2.0756078610949493e-04 0.0000000000000000e+00  3.3820513109244458e-04 2.0835009785115640e-04 0.0000000000000000e+00  3.3827376294984137e-04 2.0714165603739231e-04 0.0000000000000000e+00  3.3816322106640595e-04 1.9847131219054526e-04 0.0000000000000000e+00  3.3718393504386592e-04 1.9179937001344212e-04 0.0000000000000000e+00  3.3316069831139231e-04 1.8107716131970355e-04 0.0000000000000000e+00  3.3138885352997007e-04 1.7299174177030300e-04 0.0000000000000000e+00  3.2832078208071920e-04 1.6339887151924838e-04 0.0000000000000000e+00  3.2779000118954543e-04 1.5618354995377296e-04 0.0000000000000000e+00  3.2562915622526127e-04 1.4577493161863119e-04 0.0000000000000000e+00  3.2306853753502125e-04 1.4060554401167916e-04 0.0000000000000000e+00  3.1986857354170556e-04 1.3726165916238566e-04 0.0000000000000000e+00  3.1721471029304532e-04 1.3406690125322221e-04 0.0000000000000000e+00  3.1493427514146317e-04 1.2824796896439777e-04 0.0000000000000000e+00  3.1603771104528181e-04 1.2721868486970686e-04 0.0000000000000000e+00  3.1200848970267794e-04 1.2746449182143651e-04 0.0000000000000000e+00  3.0577902449064508e-04 1.2551036399548421e-04 0.0000000000000000e+00  3.0141349828726604e-04 1.3708180830259521e-04 0.0000000000000000e+00  3.0377728759834762e-04 1.4942032419081993e-04 0.0000000000000000e+00  2.0734400962056963e-04 -9.5840166988077910e-05 0.0000000000000000e+00  2.6746168732194792e-04 7.3756213132731641e-05 0.0000000000000000e+00  2.9094635466795190e-04 1.1756918365538707e-04 0.0000000000000000e+00  3.0158870529077271e-04 1.4492817031772689e-04 0.0000000000000000e+00  3.0829716293475533e-04 1.6841708568884594e-04 0.0000000000000000e+00  3.1808394658566286e-04 1.8975446566970268e-04 0.0000000000000000e+00  3.2660715116283840e-04 2.0211099558494760e-04 0.0000000000000000e+00  3.3363807309984430e-04 2.0549607866087011e-04 0.0000000000000000e+00  3.3719105802668402e-04 2.0575055104748161e-04 0.0000000000000000e+00  3.3865145704847245e-04 2.0755973390747598e-04 0.0000000000000000e+00  3.4178449518066392e-04 2.0683492667126702e-04 0.0000000000000000e+00  3.4231873555947497e-04 1.9820040897957231e-04 0.0000000000000000e+00  3.4217306655642268e-04 1.9301390872856193e-04 0.0000000000000000e+00  3.4089221033746709e-04 1.8232425313788886e-04 0.0000000000000000e+00  3.3796486735352554e-04 1.7448339999998110e-04 0.0000000000000000e+00  3.3614525878333991e-04 1.6413184559644397e-04 0.0000000000000000e+00  3.3495801191424048e-04 1.5660938563221886e-04 0.0000000000000000e+00  3.3170399150688086e-04 1.4764003893044073e-04 0.0000000000000000e+00  3.2650866872041702e-04 1.4252540743056371e-04 0.0000000000000000e+00  3.2370442750377892e-04 1.3948873502424752e-04 0.0000000000000000e+00  3.2094029079476910e-04 1.3587531920518337e-04 0.0000000000000000e+00  3.1818052240444099e-04 1.2911469966644744e-04 0.0000000000000000e+00  3.1305336705543627e-04 1.2924487545526369e-04 0.0000000000000000e+00  3.1040916307663861e-04 1.3180704709570175e-04 0.0000000000000000e+00  3.0154178731203084e-04 1.2997838319185612e-04 0.0000000000000000e+00  2.9396581662181637e-04 1.3825227777008187e-04 0.0000000000000000e+00  2.9319510149832759e-04 1.4815004133786759e-04 0.0000000000000000e+00  </DataArray> 
</PointData> 
</Piece>
</UnstructuredGrid>
</VTKFile>