<?xml version="1.0"?>
<VTKFile type="UnstructuredGrid"  version="0.1"  >
<UnstructuredGrid>
<Piece  NumberOfPoints="135" NumberOfCells="208">
<Points>
<DataArray  type="Float64"  NumberOfComponents="3"  format="ascii">1 1 0  1.076923076923077 1 0  1.153846153846154 1 0  1.230769230769231 1 0  1.307692307692308 1 0  1.384615384615385 1 0  1.461538461538462 1 0  1.538461538461538 1 0  1.615384615384615 1 0  1.692307692307692 1 0  1.769230769230769 1 0  1.846153846153846 1 0  1.923076923076923 1 0  2 1 0  2.076923076923077 1 0  2.153846153846154 1 0  2.230769230769231 1 0  2.307692307692307 1 0  2.384615384615385 1 0  2.461538461538462 1 0  2.538461538461538 1 0  2.615384615384615 1 0  2.692307692307693 1 0  2.769230769230769 1 0  2.846153846153846 1 0  2.923076923076923 1 0  3 1 0  1 1.0625 0  1.076923076923077 1.0625 0  1.153846153846154 1.0625 0  1.230769230769231 1.0625 0  1.307692307692308 1.0625 0  1.384615384615385 1.0625 0  1.461538461538462 1.0625 0  1.538461538461538 1.0625 0  1.615384615384615 1.0625 0  1.692307692307692 1.0625 0  1.769230769230769 1.0625 0  1.846153846153846 1.0625 0  1.923076923076923 1.0625 0  2 1.0625 0  2.076923076923077 1.0625 0  2.153846153846154 1.0625 0  2.230769230769231 1.0625 0  2.307692307692307 1.0625 0  2.384615384615385 1.0625 0  2.461538461538462 1.0625 0  2.538461538461538 1.0625 0  2.615384615384615 1.0625 0  2.692307692307693 1.0625 0  2.769230769230769 1.0625 0  2.846153846153846 1.0625 0  2.923076923076923 1.0625 0  3 1.0625 0  1 1.125 0  1.076923076923077 1.125 0  1.153846153846154 1.125 0  1.230769230769231 1.125 0  1.307692307692308 1.125 0  1.384615384615385 1.125 0  1.461538461538462 1.125 0  1.538461538461538 1.125 0  1.615384615384615 1.125 0  1.692307692307692 1.125 0  1.769230769230769 1.125 0  1.846153846153846 1.125 0  1.923076923076923 1.125 0  2 1.125 0  2.076923076923077 1.125 0  2.153846153846154 1.125 0  2.230769230769231 1.125 0  2.307692307692307 1.125 0  2.384615384615385 1.125 0  2.461538461538462 1.125 0  2.538461538461538 1.125 0  2.615384615384615 1.125 0  2.692307692307693 1.125 0  2.769230769230769 1.125 0  2.846153846153846 1.125 0  2.923076923076923 1.125 0  3 1.125 0  1 1.1875 0  1.076923076923077 1.1875 0  1.153846153846154 1.1875 0  1.230769230769231 1.1875 0  1.307692307692308 1.1875 0  1.384615384615385 1.1875 0  1.461538461538462 1.1875 0  1.538461538461538 1.1875 0  1.615384615384615 1.1875 0  1.692307692307692 1.1875 0  1.769230769230769 1.1875 0  1.846153846153846 1.1875 0  1.923076923076923 1.1875 0  2 1.1875 0  2.076923076923077 1.1875 0  2.153846153846154 1.1875 0  2.230769230769231 1.1875 0  2.307692307692307 1.1875 0  2.384615384615385 1.1875 0  2.461538461538462 1.1875 0  2.538461538461538 1.1875 0  2.615384615384615 1.1875 0  2.692307692307693 1.1875 0  2.769230769230769 1.1875 0  2.846153846153846 1.1875 0  2.923076923076923 1.1875 0  3 1.1875 0  1 1.25 0  1.076923076923077 1.25 0  1.153846153846154 1.25 0  1.230769230769231 1.25 0  1.307692307692308 1.25 0  1.384615384615385 1.25 0  1.461538461538462 1.25 0  1.538461538461538 1.25 0  1.615384615384615 1.25 0  1.692307692307692 1.25 0  1.769230769230769 1.25 0  1.846153846153846 1.25 0  1.923076923076923 1.25 0  2 1.25 0  2.076923076923077 1.25 0  2.153846153846154 1.25 0  2.230769230769231 1.25 0  2.307692307692307 1.25 0  2.384615384615385 1.25 0  2.461538461538462 1.25 0  2.538461538461538 1.25 0  2.615384615384615 1.25 0  2.692307692307693 1.25 0  2.769230769230769 1.25 0  2.846153846153846 1.25 0  2.923076923076923 1.25 0  3 1.25 0  </DataArray>
</Points>
<Cells>
<DataArray  type="UInt32"  Name="connectivity"  format="ascii">0 1 28  0 27 28  1 2 29  1 28 29  2 3 30  2 29 30  3 4 31  3 30 31  4 5 32  4 31 32  5 6 33  5 32 33  6 7 34  6 33 34  7 8 35  7 34 35  8 9 36  8 35 36  9 10 37  9 36 37  10 11 38  10 37 38  11 12 39  11 38 39  12 13 40  12 39 40  13 14 41  13 40 41  14 15 42  14 41 42  15 16 43  15 42 43  16 17 44  16 43 44  17 18 45  17 44 45  18 19 46  18 45 46  19 20 47  19 46 47  20 21 48  20 47 48  21 22 49  21 48 49  22 23 50  22 49 50  23 24 51  23 50 51  24 25 52  24 51 52  25 26 53  25 52 53  27 28 55  27 54 55  28 29 56  28 55 56  29 30 57  29 56 57  30 31 58  30 57 58  31 32 59  31 58 59  32 33 60  32 59 60  33 34 61  33 60 61  34 35 62  34 61 62  35 36 63  35 62 63  36 37 64  36 63 64  37 38 65  37 64 65  38 39 66  38 65 66  39 40 67  39 66 67  40 41 68  40 67 68  41 42 69  41 68 69  42 43 70  42 69 70  43 44 71  43 70 71  44 45 72  44 71 72  45 46 73  45 72 73  46 47 74  46 73 74  47 48 75  47 74 75  48 49 76  48 75 76  49 50 77  49 76 77  50 51 78  50 77 78  51 52 79  51 78 79  52 53 80  52 79 80  54 55 82  54 81 82  55 56 83  55 82 83  56 57 84  56 83 84  57 58 85  57 84 85  58 59 86  58 85 86  59 60 87  59 86 87  60 61 88  60 87 88  61 62 89  61 88 89  62 63 90  62 89 90  63 64 91  63 90 91  64 65 92  64 91 92  65 66 93  65 92 93  66 67 94  66 93 94  67 68 95  67 94 95  68 69 96  68 95 96  69 70 97  69 96 97  70 71 98  70 97 98  71 72 99  71 98 99  72 73 100  72 99 100  73 74 101  73 100 101  74 75 102  74 101 102  75 76 103  75 102 103  76 77 104  76 103 104  77 78 105  77 104 105  78 79 106  78 105 106  79 80 107  79 106 107  81 82 109  81 108 109  82 83 110  82 109 110  83 84 111  83 110 111  84 85 112  84 111 112  85 86 113  85 112 113  86 87 114  86 113 114  87 88 115  87 114 115  88 89 116  88 115 116  89 90 117  89 116 117  90 91 118  90 117 118  91 92 119  91 118 119  92 93 120  92 119 120  93 94 121  93 120 121  94 95 122  94 121 122  95 96 123  95 122 123  96 97 124  96 123 124  97 98 125  97 124 125  98 99 126  98 125 126  99 100 127  99 126 127  100 101 128  100 127 128  101 102 129  101 128 129  102 103 130  102 129 130  103 104 131  103 130 131  104 105 132  104 131 132  105 106 133  105 132 133  106 107 134  106 133 134  </DataArray>
<DataArray  type="UInt32"  Name="offsets"  format="ascii">3 6 9 12 15 18 21 24 27 30 33 36 39 42 45 48 51 54 57 60 63 66 69 72 75 78 81 84 87 90 93 96 99 102 105 108 111 114 117 120 123 126 129 132 135 138 141 144 147 150 153 156 159 162 165 168 171 174 177 180 183 186 189 192 195 198 201 204 207 210 213 216 219 222 225 228 231 234 237 240 243 246 249 252 255 258 261 264 267 270 273 276 279 282 285 288 291 294 297 300 303 306 309 312 315 318 321 324 327 330 333 336 339 342 345 348 351 354 357 360 363 366 369 372 375 378 381 384 387 390 393 396 399 402 405 408 411 414 417 420 423 426 429 432 435 438 441 444 447 450 453 456 459 462 465 468 471 474 477 480 483 486 489 492 495 498 501 504 507 510 513 516 519 522 525 528 531 534 537 540 543 546 549 552 555 558 561 564 567 570 573 576 579 582 585 588 591 594 597 600 603 606 609 612 615 618 621 624 </DataArray>
<DataArray  type="UInt8"  Name="types"  format="ascii">5 5 5 5 5 5 5 5 5 5 5 5 5 5 5 5 5 5 5 5 5 5 5 5 5 5 5 5 5 5 5 5 5 5 5 5 5 5 5 5 5 5 5 5 5 5 5 5 5 5 5 5 5 5 5 5 5 5 5 5 5 5 5 5 5 5 5 5 5 5 5 5 5 5 5 5 5 5 5 5 5 5 5 5 5 5 5 5 5 5 5 5 5 5 5 5 5 5 5 5 5 5 5 5 5 5 5 5 5 5 5 5 5 5 5 5 5 5 5 5 5 5 5 5 5 5 5 5 5 5 5 5 5 5 5 5 5 5 5 5 5 5 5 5 5 5 5 5 5 5 5 5 5 5 5 5 5 5 5 5 5 5 5 5 5 5 5 5 5 5 5 5 5 5 5 5 5 5 5 5 5 5 5 5 5 5 5 5 5 5 5 5 5 5 5 5 5 5 5 5 5 5 5 5 5 5 5 5 </DataArray>
</Cells>
<PointData  Vectors="Displacement"> 
<DataArray  type="Float64"  Name="Displacement"  NumberOfComponents="3" format="ascii">3.9922698689291914e-04 1.7892396386159380e-04 0.0000000000000000e+00  4.4407480196217004e-04 6.9682094446861832e-05 0.0000000000000000e+00  4.5914509170188713e-04 1.1352549548402207e-04 0.0000000000000000e+00  4.5034859405177250e-04 1.4877451845919849e-04 0.0000000000000000e+00  4.3954269837992346e-04 1.7602404922119084e-04 0.0000000000000000e+00  4.2974425673792391e-04 1.9542401872412718e-04 0.0000000000000000e+00  4.1922532300759307e-04 2.0533561931544860e-04 0.0000000000000000e+00  4.0870896903046566e-04 2.1239045740830025e-04 0.0000000000000000e+00  3.9976692581571139e-04 2.1384009583793429e-04 0.0000000000000000e+00  3.9165447380654523e-04 2.1331925146329076e-04 0.0000000000000000e+00  3.8505144523113752e-04 2.1083465589491349e-04 0.0000000000000000e+00  3.7784802909719104e-04 2.0575910301786322e-04 0.0000000000000000e+00  3.7141658821760717e-04 1.9906536850252052e-04 0.0000000000000000e+00  3.6785618368356918e-04 1.9285607070284325e-04 0.0000000000000000e+00  3.6311396905614385e-04 1.8498184277110970e-04 0.0000000000000000e+00  3.5976649200134507e-04 1.7571387358918011e-04 0.0000000000000000e+00  3.5787830257077649e-04 1.6855637083859390e-04 0.0000000000000000e+00  3.5602363170782967e-04 1.5676037832255003e-04 0.0000000000000000e+00  3.5600456189505651e-04 1.4997812166377443e-04 0.0000000000000000e+00  3.5838719381392329e-04 1.4401138502951379e-04 0.0000000000000000e+00  3.5934614524015511e-04 1.4108850065546133e-04 0.0000000000000000e+00  3.6116790694005297e-04 1.3976987833976207e-04 0.0000000000000000e+00  3.6371980019312664e-04 1.4045149995993528e-04 0.0000000000000000e+00  3.6629722685263858e-04 1.4422468396631201e-04 0.0000000000000000e+00  3.6639144200007530e-04 1.4527627035621274e-04 0.0000000000000000e+00  3.6974138800808918e-04 1.4492877005233725e-04 0.0000000000000000e+00  3.8842315047923947e-04 2.0189036903250636e-04 0.0000000000000000e+00  4.4099686385525358e-04 7.7842063227765882e-05 0.0000000000000000e+00  4.4271516547092022e-04 7.5028328695374494e-05 0.0000000000000000e+00  4.3215548798436644e-04 1.1387981569379784e-04 0.0000000000000000e+00  4.2543977261901537e-04 1.5178927652710944e-04 0.0000000000000000e+00  4.2002990105054926e-04 1.7817415948565593e-04 0.0000000000000000e+00  4.1571120116670437e-04 1.9775471569693752e-04 0.0000000000000000e+00  4.0939930170316176e-04 2.0915599371782017e-04 0.0000000000000000e+00  4.0388905789795715e-04 2.1739121768318546e-04 0.0000000000000000e+00  3.9733662976928065e-04 2.1771975245541520e-04 0.0000000000000000e+00  3.9235329803516552e-04 2.1764532211051367e-04 0.0000000000000000e+00  3.8649932290602625e-04 2.1363124521303487e-04 0.0000000000000000e+00  3.8270390480078261e-04 2.0962316964730600e-04 0.0000000000000000e+00  3.7800054178509479e-04 2.0246135417538707e-04 0.0000000000000000e+00  3.7419644382221632e-04 1.9489511261600658e-04 0.0000000000000000e+00  3.6994410371987593e-04 1.8719718642687215e-04 0.0000000000000000e+00  3.6803982926566229e-04 1.7763814366695641e-04 0.0000000000000000e+00  3.6528051044922103e-04 1.6864142488528023e-04 0.0000000000000000e+00  3.6377807239134545e-04 1.5872950154020103e-04 0.0000000000000000e+00  3.6110783488616476e-04 1.5024325562558211e-04 0.0000000000000000e+00  3.6242140779893918e-04 1.4334853576382424e-04 0.0000000000000000e+00  3.6344452825595535e-04 1.4122955215948313e-04 0.0000000000000000e+00  3.6401291739846523e-04 1.3988342048347214e-04 0.0000000000000000e+00  3.6474405633716211e-04 1.3978467008188961e-04 0.0000000000000000e+00  3.6590921951272569e-04 1.4343913725031588e-04 0.0000000000000000e+00  3.6502457525495053e-04 1.4753423941507932e-04 0.0000000000000000e+00  3.6168821577677962e-04 1.5285801947173297e-04 0.0000000000000000e+00  3.6445800294792582e-04 1.7245815632427168e-04 0.0000000000000000e+00  4.1319374005759427e-04 3.4653510265682452e-05 0.0000000000000000e+00  4.2105428085346312e-04 7.8932577202575716e-05 0.0000000000000000e+00  4.1062325153286148e-04 1.1935364000146511e-04 0.0000000000000000e+00  4.0381001220351158e-04 1.5409636515362034e-04 0.0000000000000000e+00  4.0085996175940903e-04 1.7923860386965268e-04 0.0000000000000000e+00  4.0052827487313574e-04 1.9823682311634588e-04 0.0000000000000000e+00  3.9864260729615688e-04 2.1075387373959925e-04 0.0000000000000000e+00  3.9640047150408825e-04 2.1932317223763426e-04 0.0000000000000000e+00  3.9404173519082145e-04 2.2039544807389962e-04 0.0000000000000000e+00  3.9034884283582451e-04 2.2036697271942118e-04 0.0000000000000000e+00  3.8746101969345441e-04 2.1530095817822315e-04 0.0000000000000000e+00  3.8385841930369609e-04 2.1039063522016897e-04 0.0000000000000000e+00  3.8229896554182715e-04 2.0337850569925929e-04 0.0000000000000000e+00  3.7922377194940429e-04 1.9636629115453363e-04 0.0000000000000000e+00  3.7588705319315430e-04 1.8814491316724539e-04 0.0000000000000000e+00  3.7422566487020403e-04 1.7721903029208912e-04 0.0000000000000000e+00  3.7191723069439071e-04 1.6857346617267131e-04 0.0000000000000000e+00  3.6915771613346107e-04 1.6213607776934915e-04 0.0000000000000000e+00  3.6554721192996937e-04 1.5035919810424923e-04 0.0000000000000000e+00  3.6634305041018144e-04 1.4254500115500643e-04 0.0000000000000000e+00  3.6603012144445772e-04 1.4096804229138063e-04 0.0000000000000000e+00  3.6564383397751614e-04 1.3951853000718217e-04 0.0000000000000000e+00  3.6408609941577602e-04 1.3900425151434212e-04 0.0000000000000000e+00  3.6251879533798621e-04 1.4244478295623222e-04 0.0000000000000000e+00  3.6042289411117995e-04 1.4855454865980879e-04 0.0000000000000000e+00  3.5735592905056213e-04 1.5404294658681697e-04 0.0000000000000000e+00  3.5952575887163976e-04 1.5820831241324627e-04 0.0000000000000000e+00  3.7442248823813575e-04 -3.9923654222043723e-06 0.0000000000000000e+00  3.8397085043594044e-04 7.6327763343593023e-05 0.0000000000000000e+00  3.7994689108018721e-04 1.2561157858714524e-04 0.0000000000000000e+00  3.8025713336684161e-04 1.5563377300251727e-04 0.0000000000000000e+00  3.8230600424242462e-04 1.7942119869458973e-04 0.0000000000000000e+00  3.8503242169432887e-04 1.9719222978373084e-04 0.0000000000000000e+00  3.8752264140287358e-04 2.1130802269699641e-04 0.0000000000000000e+00  3.8974428859660053e-04 2.2037391697599616e-04 0.0000000000000000e+00  3.8953525386212239e-04 2.2186168318306745e-04 0.0000000000000000e+00  3.8901856124511547e-04 2.2213240055998958e-04 0.0000000000000000e+00  3.8799924299511940e-04 2.1645407097819881e-04 0.0000000000000000e+00  3.8834981551851748e-04 2.1139414346222648e-04 0.0000000000000000e+00  3.8546968041308996e-04 2.0458909747624640e-04 0.0000000000000000e+00  3.8364478172879442e-04 1.9848162491177562e-04 0.0000000000000000e+00  3.8182653847883611e-04 1.8854416535175905e-04 0.0000000000000000e+00  3.8167492194123221e-04 1.7961087555265842e-04 0.0000000000000000e+00  3.7849003493285017e-04 1.7005481864920999e-04 0.0000000000000000e+00  3.7746669901507013e-04 1.6542773387033790e-04 0.0000000000000000e+00  3.7236235807965354e-04 1.5240677107042605e-04 0.0000000000000000e+00  3.6875658446910525e-04 1.4351104567973728e-04 0.0000000000000000e+00  3.6656571688673776e-04 1.4117630662267928e-04 0.0000000000000000e+00  3.6539173220343429e-04 1.4041013087638649e-04 0.0000000000000000e+00  3.6490391205623552e-04 1.4141154181487677e-04 0.0000000000000000e+00  3.6087832216904656e-04 1.4564280850530426e-04 0.0000000000000000e+00  3.5853657604280006e-04 1.4937998508961591e-04 0.0000000000000000e+00  3.5861099188086979e-04 1.5352025842307719e-04 0.0000000000000000e+00  3.6110176664955684e-04 1.5313465997110427e-04 0.0000000000000000e+00  2.6095256008891964e-04 -1.0029471658026343e-04 0.0000000000000000e+00  3.2006213416155288e-04 7.2871425996972507e-05 0.0000000000000000e+00  3.4356616817123606e-04 1.2283153312367249e-04 0.0000000000000000e+00  3.5650576961912420e-04 1.5282971985048686e-04 0.0000000000000000e+00  3.6449716520158730e-04 1.7674966837431902e-04 0.0000000000000000e+00  3.7107113455031761e-04 1.9427908370752231e-04 0.0000000000000000e+00  3.7720530516602117e-04 2.0997286729968625e-04 0.0000000000000000e+00  3.8247330648910225e-04 2.1902472656746430e-04 0.0000000000000000e+00  3.8685878797916837e-04 2.2178581690444028e-04 0.0000000000000000e+00  3.8932931087613424e-04 2.2208205468355669e-04 0.0000000000000000e+00  3.9238935139506239e-04 2.1602476944731599e-04 0.0000000000000000e+00  3.9183954685423410e-04 2.1202004102021529e-04 0.0000000000000000e+00  3.9036940190802010e-04 2.0645040637280840e-04 0.0000000000000000e+00  3.8906843431412292e-04 1.9838730452698689e-04 0.0000000000000000e+00  3.8980568289940875e-04 1.8921677265678157e-04 0.0000000000000000e+00  3.8751694285767602e-04 1.8122948351588684e-04 0.0000000000000000e+00  3.8451592573499001e-04 1.7112373154821962e-04 0.0000000000000000e+00  3.8331060140053922e-04 1.6616394428890671e-04 0.0000000000000000e+00  3.8113864167424905e-04 1.5771049183968075e-04 0.0000000000000000e+00  3.7340771961481546e-04 1.4658126902755570e-04 0.0000000000000000e+00  3.6754740398373717e-04 1.4372773251155677e-04 0.0000000000000000e+00  3.6492480759461621e-04 1.4191128792780672e-04 0.0000000000000000e+00  3.6152962284597388e-04 1.4339486819210637e-04 0.0000000000000000e+00  3.5980394877819626e-04 1.4730937239115498e-04 0.0000000000000000e+00  3.5965475389792640e-04 1.4958708888199740e-04 0.0000000000000000e+00  3.6088476349928670e-04 1.5223168279345406e-04 0.0000000000000000e+00  3.6272430681730667e-04 1.5126239168112028e-04 0.0000000000000000e+00  </DataArray> 
</PointData> 
</Piece>
</UnstructuredGrid>
</VTKFile>