<?xml version="1.0"?>
<VTKFile type="UnstructuredGrid"  version="0.1"  >
<UnstructuredGrid>
<Piece  NumberOfPoints="135" NumberOfCells="208">
<Points>
<DataArray  type="Float64"  NumberOfComponents="3"  format="ascii">1 1 0  1.076923076923077 1 0  1.153846153846154 1 0  1.230769230769231 1 0  1.307692307692308 1 0  1.384615384615385 1 0  1.461538461538462 1 0  1.538461538461538 1 0  1.615384615384615 1 0  1.692307692307692 1 0  1.769230769230769 1 0  1.846153846153846 1 0  1.923076923076923 1 0  2 1 0  2.076923076923077 1 0  2.153846153846154 1 0  2.230769230769231 1 0  2.307692307692307 1 0  2.384615384615385 1 0  2.461538461538462 1 0  2.538461538461538 1 0  2.615384615384615 1 0  2.692307692307693 1 0  2.769230769230769 1 0  2.846153846153846 1 0  2.923076923076923 1 0  3 1 0  1 1.0625 0  1.076923076923077 1.0625 0  1.153846153846154 1.0625 0  1.230769230769231 1.0625 0  1.307692307692308 1.0625 0  1.384615384615385 1.0625 0  1.461538461538462 1.0625 0  1.538461538461538 1.0625 0  1.615384615384615 1.0625 0  1.692307692307692 1.0625 0  1.769230769230769 1.0625 0  1.846153846153846 1.0625 0  1.923076923076923 1.0625 0  2 1.0625 0  2.076923076923077 1.0625 0  2.153846153846154 1.0625 0  2.230769230769231 1.0625 0  2.307692307692307 1.0625 0  2.384615384615385 1.0625 0  2.461538461538462 1.0625 0  2.538461538461538 1.0625 0  2.615384615384615 1.0625 0  2.692307692307693 1.0625 0  2.769230769230769 1.0625 0  2.846153846153846 1.0625 0  2.923076923076923 1.0625 0  3 1.0625 0  1 1.125 0  1.076923076923077 1.125 0  1.153846153846154 1.125 0  1.230769230769231 1.125 0  1.307692307692308 1.125 0  1.384615384615385 1.125 0  1.461538461538462 1.125 0  1.538461538461538 1.125 0  1.615384615384615 1.125 0  1.692307692307692 1.125 0  1.769230769230769 1.125 0  1.846153846153846 1.125 0  1.923076923076923 1.125 0  2 1.125 0  2.076923076923077 1.125 0  2.153846153846154 1.125 0  2.230769230769231 1.125 0  2.307692307692307 1.125 0  2.384615384615385 1.125 0  2.461538461538462 1.125 0  2.538461538461538 1.125 0  2.615384615384615 1.125 0  2.692307692307693 1.125 0  2.769230769230769 1.125 0  2.846153846153846 1.125 0  2.923076923076923 1.125 0  3 1.125 0  1 1.1875 0  1.076923076923077 1.1875 0  1.153846153846154 1.1875 0  1.230769230769231 1.1875 0  1.307692307692308 1.1875 0  1.384615384615385 1.1875 0  1.461538461538462 1.1875 0  1.538461538461538 1.1875 0  1.615384615384615 1.1875 0  1.692307692307692 1.1875 0  1.769230769230769 1.1875 0  1.846153846153846 1.1875 0  1.923076923076923 1.1875 0  2 1.1875 0  2.076923076923077 1.1875 0  2.153846153846154 1.1875 0  2.230769230769231 1.1875 0  2.307692307692307 1.1875 0  2.384615384615385 1.1875 0  2.461538461538462 1.1875 0  2.538461538461538 1.1875 0  2.615384615384615 1.1875 0  2.692307692307693 1.1875 0  2.769230769230769 1.1875 0  2.846153846153846 1.1875 0  2.923076923076923 1.1875 0  3 1.1875 0  1 1.25 0  1.076923076923077 1.25 0  1.153846153846154 1.25 0  1.230769230769231 1.25 0  1.307692307692308 1.25 0  1.384615384615385 1.25 0  1.461538461538462 1.25 0  1.538461538461538 1.25 0  1.615384615384615 1.25 0  1.692307692307692 1.25 0  1.769230769230769 1.25 0  1.846153846153846 1.25 0  1.923076923076923 1.25 0  2 1.25 0  2.076923076923077 1.25 0  2.153846153846154 1.25 0  2.230769230769231 1.25 0  2.307692307692307 1.25 0  2.384615384615385 1.25 0  2.461538461538462 1.25 0  2.538461538461538 1.25 0  2.615384615384615 1.25 0  2.692307692307693 1.25 0  2.769230769230769 1.25 0  2.846153846153846 1.25 0  2.923076923076923 1.25 0  3 1.25 0  </DataArray>
</Points>
<Cells>
<DataArray  type="UInt32"  Name="connectivity"  format="ascii">0 1 28  0 27 28  1 2 29  1 28 29  2 3 30  2 29 30  3 4 31  3 30 31  4 5 32  4 31 32  5 6 33  5 32 33  6 7 34  6 33 34  7 8 35  7 34 35  8 9 36  8 35 36  9 10 37  9 36 37  10 11 38  10 37 38  11 12 39  11 38 39  12 13 40  12 39 40  13 14 41  13 40 41  14 15 42  14 41 42  15 16 43  15 42 43  16 17 44  16 43 44  17 18 45  17 44 45  18 19 46  18 45 46  19 20 47  19 46 47  20 21 48  20 47 48  21 22 49  21 48 49  22 23 50  22 49 50  23 24 51  23 50 51  24 25 52  24 51 52  25 26 53  25 52 53  27 28 55  27 54 55  28 29 56  28 55 56  29 30 57  29 56 57  30 31 58  30 57 58  31 32 59  31 58 59  32 33 60  32 59 60  33 34 61  33 60 61  34 35 62  34 61 62  35 36 63  35 62 63  36 37 64  36 63 64  37 38 65  37 64 65  38 39 66  38 65 66  39 40 67  39 66 67  40 41 68  40 67 68  41 42 69  41 68 69  42 43 70  42 69 70  43 44 71  43 70 71  44 45 72  44 71 72  45 46 73  45 72 73  46 47 74  46 73 74  47 48 75  47 74 75  48 49 76  48 75 76  49 50 77  49 76 77  50 51 78  50 77 78  51 52 79  51 78 79  52 53 80  52 79 80  54 55 82  54 81 82  55 56 83  55 82 83  56 57 84  56 83 84  57 58 85  57 84 85  58 59 86  58 85 86  59 60 87  59 86 87  60 61 88  60 87 88  61 62 89  61 88 89  62 63 90  62 89 90  63 64 91  63 90 91  64 65 92  64 91 92  65 66 93  65 92 93  66 67 94  66 93 94  67 68 95  67 94 95  68 69 96  68 95 96  69 70 97  69 96 97  70 71 98  70 97 98  71 72 99  71 98 99  72 73 100  72 99 100  73 74 101  73 100 101  74 75 102  74 101 102  75 76 103  75 102 103  76 77 104  76 103 104  77 78 105  77 104 105  78 79 106  78 105 106  79 80 107  79 106 107  81 82 109  81 108 109  82 83 110  82 109 110  83 84 111  83 110 111  84 85 112  84 111 112  85 86 113  85 112 113  86 87 114  86 113 114  87 88 115  87 114 115  88 89 116  88 115 116  89 90 117  89 116 117  90 91 118  90 117 118  91 92 119  91 118 119  92 93 120  92 119 120  93 94 121  93 120 121  94 95 122  94 121 122  95 96 123  95 122 123  96 97 124  96 123 124  97 98 125  97 124 125  98 99 126  98 125 126  99 100 127  99 126 127  100 101 128  100 127 128  101 102 129  101 128 129  102 103 130  102 129 130  103 104 131  103 130 131  104 105 132  104 131 132  105 106 133  105 132 133  106 107 134  106 133 134  </DataArray>
<DataArray  type="UInt32"  Name="offsets"  format="ascii">3 6 9 12 15 18 21 24 27 30 33 36 39 42 45 48 51 54 57 60 63 66 69 72 75 78 81 84 87 90 93 96 99 102 105 108 111 114 117 120 123 126 129 132 135 138 141 144 147 150 153 156 159 162 165 168 171 174 177 180 183 186 189 192 195 198 201 204 207 210 213 216 219 222 225 228 231 234 237 240 243 246 249 252 255 258 261 264 267 270 273 276 279 282 285 288 291 294 297 300 303 306 309 312 315 318 321 324 327 330 333 336 339 342 345 348 351 354 357 360 363 366 369 372 375 378 381 384 387 390 393 396 399 402 405 408 411 414 417 420 423 426 429 432 435 438 441 444 447 450 453 456 459 462 465 468 471 474 477 480 483 486 489 492 495 498 501 504 507 510 513 516 519 522 525 528 531 534 537 540 543 546 549 552 555 558 561 564 567 570 573 576 579 582 585 588 591 594 597 600 603 606 609 612 615 618 621 624 </DataArray>
<DataArray  type="UInt8"  Name="types"  format="ascii">5 5 5 5 5 5 5 5 5 5 5 5 5 5 5 5 5 5 5 5 5 5 5 5 5 5 5 5 5 5 5 5 5 5 5 5 5 5 5 5 5 5 5 5 5 5 5 5 5 5 5 5 5 5 5 5 5 5 5 5 5 5 5 5 5 5 5 5 5 5 5 5 5 5 5 5 5 5 5 5 5 5 5 5 5 5 5 5 5 5 5 5 5 5 5 5 5 5 5 5 5 5 5 5 5 5 5 5 5 5 5 5 5 5 5 5 5 5 5 5 5 5 5 5 5 5 5 5 5 5 5 5 5 5 5 5 5 5 5 5 5 5 5 5 5 5 5 5 5 5 5 5 5 5 5 5 5 5 5 5 5 5 5 5 5 5 5 5 5 5 5 5 5 5 5 5 5 5 5 5 5 5 5 5 5 5 5 5 5 5 5 5 5 5 5 5 5 5 5 5 5 5 5 5 5 5 5 5 </DataArray>
</Cells>
<PointData  Vectors="Displacement"> 
<DataArray  type="Float64"  Name="Displacement"  NumberOfComponents="3" format="ascii">7.4718596516870498e-04 1.4763255339717864e-04 0.0000000000000000e+00  7.9262590620204681e-04 5.7721829829633542e-05 0.0000000000000000e+00  8.0637146151022886e-04 1.1715539429854415e-04 0.0000000000000000e+00  7.9599772115223288e-04 1.6817147952459204e-04 0.0000000000000000e+00  7.7847350243560247e-04 2.0441378973345368e-04 0.0000000000000000e+00  7.6333595554779309e-04 2.3539145472696018e-04 0.0000000000000000e+00  7.4833161484858662e-04 2.5954500414881651e-04 0.0000000000000000e+00  7.3384922761581136e-04 2.7326099224212158e-04 0.0000000000000000e+00  7.1981494486623445e-04 2.7989718587925386e-04 0.0000000000000000e+00  7.0877291224616151e-04 2.8194613395553708e-04 0.0000000000000000e+00  6.9709322397369330e-04 2.8414096828744914e-04 0.0000000000000000e+00  6.8663467226499680e-04 2.7812572213151192e-04 0.0000000000000000e+00  6.7711515317715894e-04 2.7216857338296300e-04 0.0000000000000000e+00  6.6971227271538038e-04 2.6579397101353640e-04 0.0000000000000000e+00  6.6298550840830921e-04 2.5425148973188101e-04 0.0000000000000000e+00  6.6106714511346290e-04 2.4311361360145273e-04 0.0000000000000000e+00  6.5983186083088297e-04 2.3644841573073643e-04 0.0000000000000000e+00  6.5817148538671675e-04 2.2809229648204261e-04 0.0000000000000000e+00  6.5681655782982677e-04 2.2416611703520600e-04 0.0000000000000000e+00  6.5450635709448919e-04 2.2047203358288803e-04 0.0000000000000000e+00  6.5499043418222407e-04 2.1704559793427123e-04 0.0000000000000000e+00  6.5503499665343933e-04 2.1559837766635864e-04 0.0000000000000000e+00  6.5762547552909517e-04 2.1699112934694728e-04 0.0000000000000000e+00  6.5916600730187296e-04 2.2197879031962686e-04 0.0000000000000000e+00  6.6072707957533575e-04 2.2805562466683034e-04 0.0000000000000000e+00  6.6638631448716421e-04 2.3109366443119635e-04 0.0000000000000000e+00  6.8509153247164477e-04 2.9276135733924207e-04 0.0000000000000000e+00  7.7874649181972381e-04 4.9681367798601851e-05 0.0000000000000000e+00  7.7848838624583765e-04 6.3319420349024029e-05 0.0000000000000000e+00  7.6662919695289183e-04 1.1743077564865165e-04 0.0000000000000000e+00  7.5972436502839741e-04 1.7255769977432770e-04 0.0000000000000000e+00  7.4951317972573423e-04 2.1122114845954193e-04 0.0000000000000000e+00  7.3877927893930867e-04 2.4054483091202905e-04 0.0000000000000000e+00  7.3030455884658162e-04 2.6480149429980904e-04 0.0000000000000000e+00  7.2207687027250271e-04 2.7897833074860514e-04 0.0000000000000000e+00  7.1392456943591672e-04 2.8531336867213122e-04 0.0000000000000000e+00  7.0595303000756441e-04 2.8784984450760123e-04 0.0000000000000000e+00  6.9738758005542226e-04 2.8900073569352469e-04 0.0000000000000000e+00  6.9033738615413066e-04 2.8407202824417676e-04 0.0000000000000000e+00  6.8236954482687995e-04 2.7747980432961747e-04 0.0000000000000000e+00  6.7724474596377710e-04 2.6896998670451988e-04 0.0000000000000000e+00  6.7309731561119061e-04 2.5731608808749260e-04 0.0000000000000000e+00  6.6875201199000111e-04 2.4453954684339630e-04 0.0000000000000000e+00  6.6648945816525165e-04 2.3739194694847777e-04 0.0000000000000000e+00  6.6475469591535262e-04 2.3001959694554362e-04 0.0000000000000000e+00  6.6135860078227898e-04 2.2549259622718903e-04 0.0000000000000000e+00  6.5915402783176490e-04 2.2141319981705803e-04 0.0000000000000000e+00  6.5798443653090097e-04 2.1746677777028818e-04 0.0000000000000000e+00  6.5773544751249278e-04 2.1580638819211954e-04 0.0000000000000000e+00  6.5761721453141920e-04 2.1717806034863272e-04 0.0000000000000000e+00  6.5817866168141955e-04 2.2230283059256775e-04 0.0000000000000000e+00  6.5778755189988783e-04 2.2847053123687015e-04 0.0000000000000000e+00  6.5326338730635361e-04 2.3961660193688470e-04 0.0000000000000000e+00  6.5418739782909928e-04 2.6498783325284899e-04 0.0000000000000000e+00  7.3478961192866162e-04 6.6199803650628490e-06 0.0000000000000000e+00  7.4349504792843699e-04 6.7838486703945277e-05 0.0000000000000000e+00  7.3236241280415291e-04 1.2275895592944448e-04 0.0000000000000000e+00  7.2496679416898346e-04 1.7617009854160043e-04 0.0000000000000000e+00  7.2090735560109925e-04 2.1549919684983533e-04 0.0000000000000000e+00  7.1629908404079775e-04 2.4487477674283044e-04 0.0000000000000000e+00  7.1176352826599521e-04 2.6687371957428128e-04 0.0000000000000000e+00  7.0880100297829719e-04 2.8166663739358027e-04 0.0000000000000000e+00  7.0471467882114779e-04 2.8817800742055434e-04 0.0000000000000000e+00  7.0145599963020947e-04 2.9137440602875880e-04 0.0000000000000000e+00  6.9690834829617173e-04 2.9219598985637940e-04 0.0000000000000000e+00  6.9319996348735926e-04 2.8788280532556388e-04 0.0000000000000000e+00  6.8763205991512709e-04 2.8172662659088345e-04 0.0000000000000000e+00  6.8349782214332795e-04 2.7051472522657201e-04 0.0000000000000000e+00  6.8059695515365127e-04 2.6005408652819001e-04 0.0000000000000000e+00  6.7614287846599181e-04 2.4700543338032534e-04 0.0000000000000000e+00  6.7251962276236859e-04 2.3860402575192756e-04 0.0000000000000000e+00  6.7004852310602033e-04 2.3214637374575442e-04 0.0000000000000000e+00  6.6657463457263735e-04 2.2739037625834545e-04 0.0000000000000000e+00  6.6352724380003790e-04 2.2305022825021124e-04 0.0000000000000000e+00  6.6029174793230162e-04 2.1839624037587859e-04 0.0000000000000000e+00  6.5835535113527950e-04 2.1625571922079368e-04 0.0000000000000000e+00  6.5677112487598553e-04 2.1755446246755390e-04 0.0000000000000000e+00  6.5533977695963423e-04 2.2400153253133201e-04 0.0000000000000000e+00  6.5289317383327512e-04 2.3152856003668339e-04 0.0000000000000000e+00  6.4916466096163594e-04 2.4401608706820633e-04 0.0000000000000000e+00  6.4964907975407073e-04 2.5603891256183333e-04 0.0000000000000000e+00  6.7826547593109179e-04 -3.4800958523219434e-05 0.0000000000000000e+00  6.9177652857848779e-04 6.4793340539295169e-05 0.0000000000000000e+00  6.8823220765140756e-04 1.2886773443911940e-04 0.0000000000000000e+00  6.8853903169889617e-04 1.7787187893555142e-04 0.0000000000000000e+00  6.8968491157380058e-04 2.1548228373069291e-04 0.0000000000000000e+00  6.9215890178713033e-04 2.4479014670510834e-04 0.0000000000000000e+00  6.9487055634472072e-04 2.6720703189318193e-04 0.0000000000000000e+00  6.9581690880348779e-04 2.8247510003679484e-04 0.0000000000000000e+00  6.9631826018668429e-04 2.8859481917575022e-04 0.0000000000000000e+00  6.9682364343004466e-04 2.9237667063992061e-04 0.0000000000000000e+00  6.9680387684596245e-04 2.9311268997539897e-04 0.0000000000000000e+00  6.9456902338584071e-04 2.8972713462709434e-04 0.0000000000000000e+00  6.9278701297620393e-04 2.8362504210898998e-04 0.0000000000000000e+00  6.9043978478257697e-04 2.7220220623871191e-04 0.0000000000000000e+00  6.8692903453932991e-04 2.6115007887876808e-04 0.0000000000000000e+00  6.8278148365388293e-04 2.4944771228499425e-04 0.0000000000000000e+00  6.7921000439373459e-04 2.3971618856545590e-04 0.0000000000000000e+00  6.7522916249832942e-04 2.3315110464726711e-04 0.0000000000000000e+00  6.7160119471730377e-04 2.2903262058784289e-04 0.0000000000000000e+00  6.6712806204998691e-04 2.2508740945143113e-04 0.0000000000000000e+00  6.6226635221951647e-04 2.1975242704458183e-04 0.0000000000000000e+00  6.5896036544122621e-04 2.1696014400149276e-04 0.0000000000000000e+00  6.5510054479900337e-04 2.1790213758342137e-04 0.0000000000000000e+00  6.5156159147249982e-04 2.2516627563228119e-04 0.0000000000000000e+00  6.4826359400334212e-04 2.3343833157995537e-04 0.0000000000000000e+00  6.4621666750550185e-04 2.4539923879040784e-04 0.0000000000000000e+00  6.4492670404687460e-04 2.5333387369297751e-04 0.0000000000000000e+00  5.5448195741744936e-04 -1.2870782705182100e-04 0.0000000000000000e+00  6.1513673010452465e-04 6.0591552440209731e-05 0.0000000000000000e+00  6.3993459463205550e-04 1.2659342200487919e-04 0.0000000000000000e+00  6.5159261602102422e-04 1.7365341625897690e-04 0.0000000000000000e+00  6.6255767142961062e-04 2.1257011733653381e-04 0.0000000000000000e+00  6.7007882994927354e-04 2.4143734689821987e-04 0.0000000000000000e+00  6.7782304979545479e-04 2.6444133112690630e-04 0.0000000000000000e+00  6.8572208207225865e-04 2.7962207712489256e-04 0.0000000000000000e+00  6.9061184089093072e-04 2.8760348976642863e-04 0.0000000000000000e+00  6.9395268768808287e-04 2.9138260489444640e-04 0.0000000000000000e+00  6.9636410434734683e-04 2.9197143274876421e-04 0.0000000000000000e+00  6.9917401514085894e-04 2.9067703380220044e-04 0.0000000000000000e+00  6.9881645662573375e-04 2.8414014366880531e-04 0.0000000000000000e+00  6.9705023184080572e-04 2.7347906107078323e-04 0.0000000000000000e+00  6.9458678382130113e-04 2.6248799576167168e-04 0.0000000000000000e+00  6.9227075235351113e-04 2.5161996483112230e-04 0.0000000000000000e+00  6.8594185511451460e-04 2.4182882938737635e-04 0.0000000000000000e+00  6.8026019875104971e-04 2.3572998346709808e-04 0.0000000000000000e+00  6.7428813488996746e-04 2.3097610730764704e-04 0.0000000000000000e+00  6.6999578767066963e-04 2.2751186412594681e-04 0.0000000000000000e+00  6.6530386594798683e-04 2.2199402139522068e-04 0.0000000000000000e+00  6.5868525178148325e-04 2.1947611446735316e-04 0.0000000000000000e+00  6.5157066857316089e-04 2.2027746549078975e-04 0.0000000000000000e+00  6.4659629848042716e-04 2.2779853634765393e-04 0.0000000000000000e+00  6.4110030995486768e-04 2.3546084114490186e-04 0.0000000000000000e+00  6.3833678026873166e-04 2.4632498131776345e-04 0.0000000000000000e+00  6.3751675940824015e-04 2.5554329537922222e-04 0.0000000000000000e+00  </DataArray> 
</PointData> 
</Piece>
</UnstructuredGrid>
</VTKFile>