<?xml version="1.0"?>
<VTKFile type="UnstructuredGrid"  version="0.1"  >
<UnstructuredGrid>
<Piece  NumberOfPoints="135" NumberOfCells="208">
<Points>
<DataArray  type="Float64"  NumberOfComponents="3"  format="ascii">1 1 0  1.076923076923077 1 0  1.153846153846154 1 0  1.230769230769231 1 0  1.307692307692308 1 0  1.384615384615385 1 0  1.461538461538462 1 0  1.538461538461538 1 0  1.615384615384615 1 0  1.692307692307692 1 0  1.769230769230769 1 0  1.846153846153846 1 0  1.923076923076923 1 0  2 1 0  2.076923076923077 1 0  2.153846153846154 1 0  2.230769230769231 1 0  2.307692307692307 1 0  2.384615384615385 1 0  2.461538461538462 1 0  2.538461538461538 1 0  2.615384615384615 1 0  2.692307692307693 1 0  2.769230769230769 1 0  2.846153846153846 1 0  2.923076923076923 1 0  3 1 0  1 1.0625 0  1.076923076923077 1.0625 0  1.153846153846154 1.0625 0  1.230769230769231 1.0625 0  1.307692307692308 1.0625 0  1.384615384615385 1.0625 0  1.461538461538462 1.0625 0  1.538461538461538 1.0625 0  1.615384615384615 1.0625 0  1.692307692307692 1.0625 0  1.769230769230769 1.0625 0  1.846153846153846 1.0625 0  1.923076923076923 1.0625 0  2 1.0625 0  2.076923076923077 1.0625 0  2.153846153846154 1.0625 0  2.230769230769231 1.0625 0  2.307692307692307 1.0625 0  2.384615384615385 1.0625 0  2.461538461538462 1.0625 0  2.538461538461538 1.0625 0  2.615384615384615 1.0625 0  2.692307692307693 1.0625 0  2.769230769230769 1.0625 0  2.846153846153846 1.0625 0  2.923076923076923 1.0625 0  3 1.0625 0  1 1.125 0  1.076923076923077 1.125 0  1.153846153846154 1.125 0  1.230769230769231 1.125 0  1.307692307692308 1.125 0  1.384615384615385 1.125 0  1.461538461538462 1.125 0  1.538461538461538 1.125 0  1.615384615384615 1.125 0  1.692307692307692 1.125 0  1.769230769230769 1.125 0  1.846153846153846 1.125 0  1.923076923076923 1.125 0  2 1.125 0  2.076923076923077 1.125 0  2.153846153846154 1.125 0  2.230769230769231 1.125 0  2.307692307692307 1.125 0  2.384615384615385 1.125 0  2.461538461538462 1.125 0  2.538461538461538 1.125 0  2.615384615384615 1.125 0  2.692307692307693 1.125 0  2.769230769230769 1.125 0  2.846153846153846 1.125 0  2.923076923076923 1.125 0  3 1.125 0  1 1.1875 0  1.076923076923077 1.1875 0  1.153846153846154 1.1875 0  1.230769230769231 1.1875 0  1.307692307692308 1.1875 0  1.384615384615385 1.1875 0  1.461538461538462 1.1875 0  1.538461538461538 1.1875 0  1.615384615384615 1.1875 0  1.692307692307692 1.1875 0  1.769230769230769 1.1875 0  1.846153846153846 1.1875 0  1.923076923076923 1.1875 0  2 1.1875 0  2.076923076923077 1.1875 0  2.153846153846154 1.1875 0  2.230769230769231 1.1875 0  2.307692307692307 1.1875 0  2.384615384615385 1.1875 0  2.461538461538462 1.1875 0  2.538461538461538 1.1875 0  2.615384615384615 1.1875 0  2.692307692307693 1.1875 0  2.769230769230769 1.1875 0  2.846153846153846 1.1875 0  2.923076923076923 1.1875 0  3 1.1875 0  1 1.25 0  1.076923076923077 1.25 0  1.153846153846154 1.25 0  1.230769230769231 1.25 0  1.307692307692308 1.25 0  1.384615384615385 1.25 0  1.461538461538462 1.25 0  1.538461538461538 1.25 0  1.615384615384615 1.25 0  1.692307692307692 1.25 0  1.769230769230769 1.25 0  1.846153846153846 1.25 0  1.923076923076923 1.25 0  2 1.25 0  2.076923076923077 1.25 0  2.153846153846154 1.25 0  2.230769230769231 1.25 0  2.307692307692307 1.25 0  2.384615384615385 1.25 0  2.461538461538462 1.25 0  2.538461538461538 1.25 0  2.615384615384615 1.25 0  2.692307692307693 1.25 0  2.769230769230769 1.25 0  2.846153846153846 1.25 0  2.923076923076923 1.25 0  3 1.25 0  </DataArray>
</Points>
<Cells>
<DataArray  type="UInt32"  Name="connectivity"  format="ascii">0 1 28  0 27 28  1 2 29  1 28 29  2 3 30  2 29 30  3 4 31  3 30 31  4 5 32  4 31 32  5 6 33  5 32 33  6 7 34  6 33 34  7 8 35  7 34 35  8 9 36  8 35 36  9 10 37  9 36 37  10 11 38  10 37 38  11 12 39  11 38 39  12 13 40  12 39 40  13 14 41  13 40 41  14 15 42  14 41 42  15 16 43  15 42 43  16 17 44  16 43 44  17 18 45  17 44 45  18 19 46  18 45 46  19 20 47  19 46 47  20 21 48  20 47 48  21 22 49  21 48 49  22 23 50  22 49 50  23 24 51  23 50 51  24 25 52  24 51 52  25 26 53  25 52 53  27 28 55  27 54 55  28 29 56  28 55 56  29 30 57  29 56 57  30 31 58  30 57 58  31 32 59  31 58 59  32 33 60  32 59 60  33 34 61  33 60 61  34 35 62  34 61 62  35 36 63  35 62 63  36 37 64  36 63 64  37 38 65  37 64 65  38 39 66  38 65 66  39 40 67  39 66 67  40 41 68  40 67 68  41 42 69  41 68 69  42 43 70  42 69 70  43 44 71  43 70 71  44 45 72  44 71 72  45 46 73  45 72 73  46 47 74  46 73 74  47 48 75  47 74 75  48 49 76  48 75 76  49 50 77  49 76 77  50 51 78  50 77 78  51 52 79  51 78 79  52 53 80  52 79 80  54 55 82  54 81 82  55 56 83  55 82 83  56 57 84  56 83 84  57 58 85  57 84 85  58 59 86  58 85 86  59 60 87  59 86 87  60 61 88  60 87 88  61 62 89  61 88 89  62 63 90  62 89 90  63 64 91  63 90 91  64 65 92  64 91 92  65 66 93  65 92 93  66 67 94  66 93 94  67 68 95  67 94 95  68 69 96  68 95 96  69 70 97  69 96 97  70 71 98  70 97 98  71 72 99  71 98 99  72 73 100  72 99 100  73 74 101  73 100 101  74 75 102  74 101 102  75 76 103  75 102 103  76 77 104  76 103 104  77 78 105  77 104 105  78 79 106  78 105 106  79 80 107  79 106 107  81 82 109  81 108 109  82 83 110  82 109 110  83 84 111  83 110 111  84 85 112  84 111 112  85 86 113  85 112 113  86 87 114  86 113 114  87 88 115  87 114 115  88 89 116  88 115 116  89 90 117  89 116 117  90 91 118  90 117 118  91 92 119  91 118 119  92 93 120  92 119 120  93 94 121  93 120 121  94 95 122  94 121 122  95 96 123  95 122 123  96 97 124  96 123 124  97 98 125  97 124 125  98 99 126  98 125 126  99 100 127  99 126 127  100 101 128  100 127 128  101 102 129  101 128 129  102 103 130  102 129 130  103 104 131  103 130 131  104 105 132  104 131 132  105 106 133  105 132 133  106 107 134  106 133 134  </DataArray>
<DataArray  type="UInt32"  Name="offsets"  format="ascii">3 6 9 12 15 18 21 24 27 30 33 36 39 42 45 48 51 54 57 60 63 66 69 72 75 78 81 84 87 90 93 96 99 102 105 108 111 114 117 120 123 126 129 132 135 138 141 144 147 150 153 156 159 162 165 168 171 174 177 180 183 186 189 192 195 198 201 204 207 210 213 216 219 222 225 228 231 234 237 240 243 246 249 252 255 258 261 264 267 270 273 276 279 282 285 288 291 294 297 300 303 306 309 312 315 318 321 324 327 330 333 336 339 342 345 348 351 354 357 360 363 366 369 372 375 378 381 384 387 390 393 396 399 402 405 408 411 414 417 420 423 426 429 432 435 438 441 444 447 450 453 456 459 462 465 468 471 474 477 480 483 486 489 492 495 498 501 504 507 510 513 516 519 522 525 528 531 534 537 540 543 546 549 552 555 558 561 564 567 570 573 576 579 582 585 588 591 594 597 600 603 606 609 612 615 618 621 624 </DataArray>
<DataArray  type="UInt8"  Name="types"  format="ascii">5 5 5 5 5 5 5 5 5 5 5 5 5 5 5 5 5 5 5 5 5 5 5 5 5 5 5 5 5 5 5 5 5 5 5 5 5 5 5 5 5 5 5 5 5 5 5 5 5 5 5 5 5 5 5 5 5 5 5 5 5 5 5 5 5 5 5 5 5 5 5 5 5 5 5 5 5 5 5 5 5 5 5 5 5 5 5 5 5 5 5 5 5 5 5 5 5 5 5 5 5 5 5 5 5 5 5 5 5 5 5 5 5 5 5 5 5 5 5 5 5 5 5 5 5 5 5 5 5 5 5 5 5 5 5 5 5 5 5 5 5 5 5 5 5 5 5 5 5 5 5 5 5 5 5 5 5 5 5 5 5 5 5 5 5 5 5 5 5 5 5 5 5 5 5 5 5 5 5 5 5 5 5 5 5 5 5 5 5 5 5 5 5 5 5 5 5 5 5 5 5 5 5 5 5 5 5 5 </DataArray>
</Cells>
<PointData  Vectors="Displacement"> 
<DataArray  type="Float64"  Name="Displacement"  NumberOfComponents="3" format="ascii">1.9520281562230606e-04 1.7709698591799136e-04 0.0000000000000000e+00  2.3911413325906908e-04 6.6309792578412668e-05 0.0000000000000000e+00  2.5057315229612078e-04 9.5155205967522015e-05 0.0000000000000000e+00  2.4016896169139364e-04 1.1519343937198756e-04 0.0000000000000000e+00  2.2601184201385467e-04 1.3012621113041919e-04 0.0000000000000000e+00  2.1053924303843149e-04 1.3993308381877014e-04 0.0000000000000000e+00  1.9722907807822373e-04 1.4697190241238440e-04 0.0000000000000000e+00  1.8455639182019510e-04 1.4792352184838596e-04 0.0000000000000000e+00  1.7629634153721381e-04 1.4798468042605869e-04 0.0000000000000000e+00  1.7016542414650246e-04 1.4558851907898386e-04 0.0000000000000000e+00  1.6545600909978654e-04 1.4025064947487700e-04 0.0000000000000000e+00  1.6182178900683823e-04 1.3591977886248140e-04 0.0000000000000000e+00  1.5573708169084444e-04 1.3623092969275010e-04 0.0000000000000000e+00  1.4407235027509075e-04 1.3214493167842831e-04 0.0000000000000000e+00  1.3263724060906670e-04 1.2300245675423314e-04 0.0000000000000000e+00  1.2470097776404998e-04 1.1086182783347902e-04 0.0000000000000000e+00  1.1997335546658221e-04 9.6106269485378353e-05 0.0000000000000000e+00  1.1520990159775402e-04 9.3071738910520841e-05 0.0000000000000000e+00  1.0903678739319674e-04 8.6459517724598551e-05 0.0000000000000000e+00  1.1034150465010410e-04 8.5592780328167903e-05 0.0000000000000000e+00  1.0851913313027507e-04 8.4444975678997684e-05 0.0000000000000000e+00  1.0794298991903218e-04 7.8226613074455412e-05 0.0000000000000000e+00  1.0843045678308472e-04 7.8206156545345632e-05 0.0000000000000000e+00  1.1139997647743748e-04 7.5442367234531887e-05 0.0000000000000000e+00  1.1708656264506792e-04 7.7490723347545482e-05 0.0000000000000000e+00  1.2019334308792262e-04 7.4554997041521330e-05 0.0000000000000000e+00  1.3079565913199864e-04 1.1751092472677666e-04 0.0000000000000000e+00  2.4924432014981831e-04 8.5644966988829201e-05 0.0000000000000000e+00  2.4645658636780282e-04 7.1820260182077042e-05 0.0000000000000000e+00  2.3424957923762766e-04 9.6022216468116920e-05 0.0000000000000000e+00  2.2460990666258896e-04 1.2043167774556128e-04 0.0000000000000000e+00  2.1422334365769246e-04 1.3680422030259117e-04 0.0000000000000000e+00  2.0286977586648513e-04 1.4770106338817828e-04 0.0000000000000000e+00  1.9232704686854063e-04 1.5353617073832234e-04 0.0000000000000000e+00  1.8339843808697610e-04 1.5436193990305433e-04 0.0000000000000000e+00  1.7717554020023875e-04 1.5201304458985429e-04 0.0000000000000000e+00  1.7218529262546752e-04 1.4901800729040136e-04 0.0000000000000000e+00  1.6839696774976221e-04 1.4349158299038246e-04 0.0000000000000000e+00  1.6289936819328284e-04 1.3949896663404779e-04 0.0000000000000000e+00  1.5659278427865991e-04 1.3997847288481122e-04 0.0000000000000000e+00  1.4968508978106086e-04 1.3830686018470340e-04 0.0000000000000000e+00  1.4225184945819064e-04 1.2822495500801199e-04 0.0000000000000000e+00  1.3643706774609380e-04 1.1484066817546993e-04 0.0000000000000000e+00  1.2847720067020834e-04 1.0113143020999301e-04 0.0000000000000000e+00  1.1857618269925609e-04 9.6781026203051346e-05 0.0000000000000000e+00  1.1568573053230716e-04 8.8658825854864411e-05 0.0000000000000000e+00  1.1271161126409645e-04 8.5416562528403670e-05 0.0000000000000000e+00  1.1149996529719905e-04 8.5497875731421717e-05 0.0000000000000000e+00  1.0967949129624017e-04 8.0046485701922067e-05 0.0000000000000000e+00  1.1254548538963823e-04 7.8144335976062024e-05 0.0000000000000000e+00  1.1350900449838884e-04 7.4303042145958310e-05 0.0000000000000000e+00  1.1728223093977098e-04 7.7888163924223449e-05 0.0000000000000000e+00  1.1496057757426248e-04 8.2722568171232744e-05 0.0000000000000000e+00  1.1631329611908893e-04 9.7461408026198014e-05 0.0000000000000000e+00  2.3222964346097640e-04 4.6428973618400938e-05 0.0000000000000000e+00  2.3541351504558243e-04 7.6965487192945362e-05 0.0000000000000000e+00  2.2225617115921847e-04 1.0279035105690410e-04 0.0000000000000000e+00  2.1103666069611514e-04 1.2563393747051915e-04 0.0000000000000000e+00  2.0269296873585426e-04 1.4109012424407579e-04 0.0000000000000000e+00  1.9530585851780196e-04 1.5157249343400407e-04 0.0000000000000000e+00  1.8714267740830575e-04 1.5770515752950505e-04 0.0000000000000000e+00  1.8024654245677544e-04 1.5728258299017758e-04 0.0000000000000000e+00  1.7475562158723729e-04 1.5335520662628706e-04 0.0000000000000000e+00  1.7185471477565532e-04 1.4904315913323531e-04 0.0000000000000000e+00  1.6846587656826591e-04 1.4513207412254674e-04 0.0000000000000000e+00  1.6296590826276892e-04 1.4097559602483056e-04 0.0000000000000000e+00  1.5802944550246683e-04 1.4102945459892798e-04 0.0000000000000000e+00  1.5424025181682053e-04 1.4033694582460754e-04 0.0000000000000000e+00  1.4881726814338327e-04 1.3028272750605495e-04 0.0000000000000000e+00  1.4347725961075128e-04 1.1637928937006467e-04 0.0000000000000000e+00  1.3632695750947474e-04 1.0623824977192117e-04 0.0000000000000000e+00  1.2767763617972284e-04 9.7895176455973216e-05 0.0000000000000000e+00  1.2227990435926845e-04 8.9596650507642761e-05 0.0000000000000000e+00  1.1465870553423291e-04 8.6557650491074273e-05 0.0000000000000000e+00  1.1170521744561079e-04 8.4441480837632176e-05 0.0000000000000000e+00  1.1068323106165329e-04 7.7916405122775080e-05 0.0000000000000000e+00  1.1393936712614710e-04 7.5113955693659759e-05 0.0000000000000000e+00  1.1419550923080076e-04 7.4590394570657603e-05 0.0000000000000000e+00  1.1491901950061993e-04 7.8025522467951172e-05 0.0000000000000000e+00  1.1351938514050102e-04 8.3266320124414999e-05 0.0000000000000000e+00  1.1401861338933095e-04 9.0478597790316729e-05 0.0000000000000000e+00  1.9969576875657324e-04 1.1296998458768602e-05 0.0000000000000000e+00  2.0631463746181993e-04 7.6171232934397207e-05 0.0000000000000000e+00  2.0002341074898362e-04 1.1020351167640380e-04 0.0000000000000000e+00  1.9463286152486466e-04 1.3008824173793416e-04 0.0000000000000000e+00  1.9023295383353985e-04 1.4458659571765941e-04 0.0000000000000000e+00  1.8646997103036623e-04 1.5540677667660015e-04 0.0000000000000000e+00  1.8167620516542675e-04 1.6221825653891381e-04 0.0000000000000000e+00  1.7664971596829097e-04 1.6019115008835397e-04 0.0000000000000000e+00  1.7401291735929346e-04 1.5422088267473172e-04 0.0000000000000000e+00  1.7174250064525375e-04 1.4906497196764851e-04 0.0000000000000000e+00  1.7051694940260694e-04 1.4747228981645659e-04 0.0000000000000000e+00  1.6581685870796265e-04 1.4507993755186367e-04 0.0000000000000000e+00  1.6124278190151147e-04 1.4261347023180302e-04 0.0000000000000000e+00  1.5809700997526405e-04 1.4419719997751004e-04 0.0000000000000000e+00  1.5262015922037862e-04 1.3231569648961043e-04 0.0000000000000000e+00  1.4787519723357667e-04 1.2049818011988440e-04 0.0000000000000000e+00  1.4140391637284703e-04 1.1024744110836459e-04 0.0000000000000000e+00  1.3567637440343639e-04 1.0032844878335494e-04 0.0000000000000000e+00  1.3011620824196867e-04 9.5675468187688794e-05 0.0000000000000000e+00  1.2065723482270220e-04 8.9190306620136147e-05 0.0000000000000000e+00  1.1622840964231853e-04 8.4745850277141233e-05 0.0000000000000000e+00  1.1288122843675391e-04 7.7911929531518156e-05 0.0000000000000000e+00  1.1232916288550576e-04 7.3312613748085671e-05 0.0000000000000000e+00  1.1466945368340375e-04 7.4683487169285967e-05 0.0000000000000000e+00  1.1558172040617017e-04 7.8263405264903673e-05 0.0000000000000000e+00  1.1388071722261115e-04 8.4004692368286731e-05 0.0000000000000000e+00  1.1481066054696327e-04 9.0011542812010187e-05 0.0000000000000000e+00  1.0562745777919896e-04 -7.6752115576352348e-05 0.0000000000000000e+00  1.5519994604933597e-04 7.4817339709708523e-05 0.0000000000000000e+00  1.7285909938526015e-04 1.0950976481201293e-04 0.0000000000000000e+00  1.7790600593846093e-04 1.3046293814184291e-04 0.0000000000000000e+00  1.7782977522041903e-04 1.4633586220961641e-04 0.0000000000000000e+00  1.7775219271518383e-04 1.5640265734658961e-04 0.0000000000000000e+00  1.7756610369567026e-04 1.6356264815125230e-04 0.0000000000000000e+00  1.7861951933920592e-04 1.6065945715282344e-04 0.0000000000000000e+00  1.7728633451870960e-04 1.5447382998341676e-04 0.0000000000000000e+00  1.7456460941160705e-04 1.4856848062464928e-04 0.0000000000000000e+00  1.7086718530218739e-04 1.4857386935279186e-04 0.0000000000000000e+00  1.6816135426514584e-04 1.4751533557533870e-04 0.0000000000000000e+00  1.6259918918167061e-04 1.4393968586999743e-04 0.0000000000000000e+00  1.6140261377644237e-04 1.4672031977778333e-04 0.0000000000000000e+00  1.6091096316406958e-04 1.3435752402082826e-04 0.0000000000000000e+00  1.5326360497933862e-04 1.2351572774288796e-04 0.0000000000000000e+00  1.4726602867837433e-04 1.1252096866611568e-04 0.0000000000000000e+00  1.4128585164884820e-04 1.0181114279512329e-04 0.0000000000000000e+00  1.3562636751451653e-04 9.9824850785416657e-05 0.0000000000000000e+00  1.2842000601327817e-04 9.2185277553893455e-05 0.0000000000000000e+00  1.2222733203835201e-04 8.6630542385045475e-05 0.0000000000000000e+00  1.1634470396014392e-04 8.0354431626963036e-05 0.0000000000000000e+00  1.1357530152774678e-04 7.2757222179318490e-05 0.0000000000000000e+00  1.1321615443337491e-04 7.3026560796065796e-05 0.0000000000000000e+00  1.1271386755732298e-04 7.7162626208209856e-05 0.0000000000000000e+00  1.1363422343989734e-04 8.4232016413854206e-05 0.0000000000000000e+00  1.1335224025216504e-04 8.9761895375325244e-05 0.0000000000000000e+00  </DataArray> 
</PointData> 
</Piece>
</UnstructuredGrid>
</VTKFile>