<?xml version="1.0"?>
<VTKFile type="UnstructuredGrid"  version="0.1"  >
<UnstructuredGrid>
<Piece  NumberOfPoints="135" NumberOfCells="208">
<Points>
<DataArray  type="Float64"  NumberOfComponents="3"  format="ascii">1 1 0  1.076923076923077 1 0  1.153846153846154 1 0  1.230769230769231 1 0  1.307692307692308 1 0  1.384615384615385 1 0  1.461538461538462 1 0  1.538461538461538 1 0  1.615384615384615 1 0  1.692307692307692 1 0  1.769230769230769 1 0  1.846153846153846 1 0  1.923076923076923 1 0  2 1 0  2.076923076923077 1 0  2.153846153846154 1 0  2.230769230769231 1 0  2.307692307692307 1 0  2.384615384615385 1 0  2.461538461538462 1 0  2.538461538461538 1 0  2.615384615384615 1 0  2.692307692307693 1 0  2.769230769230769 1 0  2.846153846153846 1 0  2.923076923076923 1 0  3 1 0  1 1.0625 0  1.076923076923077 1.0625 0  1.153846153846154 1.0625 0  1.230769230769231 1.0625 0  1.307692307692308 1.0625 0  1.384615384615385 1.0625 0  1.461538461538462 1.0625 0  1.538461538461538 1.0625 0  1.615384615384615 1.0625 0  1.692307692307692 1.0625 0  1.769230769230769 1.0625 0  1.846153846153846 1.0625 0  1.923076923076923 1.0625 0  2 1.0625 0  2.076923076923077 1.0625 0  2.153846153846154 1.0625 0  2.230769230769231 1.0625 0  2.307692307692307 1.0625 0  2.384615384615385 1.0625 0  2.461538461538462 1.0625 0  2.538461538461538 1.0625 0  2.615384615384615 1.0625 0  2.692307692307693 1.0625 0  2.769230769230769 1.0625 0  2.846153846153846 1.0625 0  2.923076923076923 1.0625 0  3 1.0625 0  1 1.125 0  1.076923076923077 1.125 0  1.153846153846154 1.125 0  1.230769230769231 1.125 0  1.307692307692308 1.125 0  1.384615384615385 1.125 0  1.461538461538462 1.125 0  1.538461538461538 1.125 0  1.615384615384615 1.125 0  1.692307692307692 1.125 0  1.769230769230769 1.125 0  1.846153846153846 1.125 0  1.923076923076923 1.125 0  2 1.125 0  2.076923076923077 1.125 0  2.153846153846154 1.125 0  2.230769230769231 1.125 0  2.307692307692307 1.125 0  2.384615384615385 1.125 0  2.461538461538462 1.125 0  2.538461538461538 1.125 0  2.615384615384615 1.125 0  2.692307692307693 1.125 0  2.769230769230769 1.125 0  2.846153846153846 1.125 0  2.923076923076923 1.125 0  3 1.125 0  1 1.1875 0  1.076923076923077 1.1875 0  1.153846153846154 1.1875 0  1.230769230769231 1.1875 0  1.307692307692308 1.1875 0  1.384615384615385 1.1875 0  1.461538461538462 1.1875 0  1.538461538461538 1.1875 0  1.615384615384615 1.1875 0  1.692307692307692 1.1875 0  1.769230769230769 1.1875 0  1.846153846153846 1.1875 0  1.923076923076923 1.1875 0  2 1.1875 0  2.076923076923077 1.1875 0  2.153846153846154 1.1875 0  2.230769230769231 1.1875 0  2.307692307692307 1.1875 0  2.384615384615385 1.1875 0  2.461538461538462 1.1875 0  2.538461538461538 1.1875 0  2.615384615384615 1.1875 0  2.692307692307693 1.1875 0  2.769230769230769 1.1875 0  2.846153846153846 1.1875 0  2.923076923076923 1.1875 0  3 1.1875 0  1 1.25 0  1.076923076923077 1.25 0  1.153846153846154 1.25 0  1.230769230769231 1.25 0  1.307692307692308 1.25 0  1.384615384615385 1.25 0  1.461538461538462 1.25 0  1.538461538461538 1.25 0  1.615384615384615 1.25 0  1.692307692307692 1.25 0  1.769230769230769 1.25 0  1.846153846153846 1.25 0  1.923076923076923 1.25 0  2 1.25 0  2.076923076923077 1.25 0  2.153846153846154 1.25 0  2.230769230769231 1.25 0  2.307692307692307 1.25 0  2.384615384615385 1.25 0  2.461538461538462 1.25 0  2.538461538461538 1.25 0  2.615384615384615 1.25 0  2.692307692307693 1.25 0  2.769230769230769 1.25 0  2.846153846153846 1.25 0  2.923076923076923 1.25 0  3 1.25 0  </DataArray>
</Points>
<Cells>
<DataArray  type="UInt32"  Name="connectivity"  format="ascii">0 1 28  0 27 28  1 2 29  1 28 29  2 3 30  2 29 30  3 4 31  3 30 31  4 5 32  4 31 32  5 6 33  5 32 33  6 7 34  6 33 34  7 8 35  7 34 35  8 9 36  8 35 36  9 10 37  9 36 37  10 11 38  10 37 38  11 12 39  11 38 39  12 13 40  12 39 40  13 14 41  13 40 41  14 15 42  14 41 42  15 16 43  15 42 43  16 17 44  16 43 44  17 18 45  17 44 45  18 19 46  18 45 46  19 20 47  19 46 47  20 21 48  20 47 48  21 22 49  21 48 49  22 23 50  22 49 50  23 24 51  23 50 51  24 25 52  24 51 52  25 26 53  25 52 53  27 28 55  27 54 55  28 29 56  28 55 56  29 30 57  29 56 57  30 31 58  30 57 58  31 32 59  31 58 59  32 33 60  32 59 60  33 34 61  33 60 61  34 35 62  34 61 62  35 36 63  35 62 63  36 37 64  36 63 64  37 38 65  37 64 65  38 39 66  38 65 66  39 40 67  39 66 67  40 41 68  40 67 68  41 42 69  41 68 69  42 43 70  42 69 70  43 44 71  43 70 71  44 45 72  44 71 72  45 46 73  45 72 73  46 47 74  46 73 74  47 48 75  47 74 75  48 49 76  48 75 76  49 50 77  49 76 77  50 51 78  50 77 78  51 52 79  51 78 79  52 53 80  52 79 80  54 55 82  54 81 82  55 56 83  55 82 83  56 57 84  56 83 84  57 58 85  57 84 85  58 59 86  58 85 86  59 60 87  59 86 87  60 61 88  60 87 88  61 62 89  61 88 89  62 63 90  62 89 90  63 64 91  63 90 91  64 65 92  64 91 92  65 66 93  65 92 93  66 67 94  66 93 94  67 68 95  67 94 95  68 69 96  68 95 96  69 70 97  69 96 97  70 71 98  70 97 98  71 72 99  71 98 99  72 73 100  72 99 100  73 74 101  73 100 101  74 75 102  74 101 102  75 76 103  75 102 103  76 77 104  76 103 104  77 78 105  77 104 105  78 79 106  78 105 106  79 80 107  79 106 107  81 82 109  81 108 109  82 83 110  82 109 110  83 84 111  83 110 111  84 85 112  84 111 112  85 86 113  85 112 113  86 87 114  86 113 114  87 88 115  87 114 115  88 89 116  88 115 116  89 90 117  89 116 117  90 91 118  90 117 118  91 92 119  91 118 119  92 93 120  92 119 120  93 94 121  93 120 121  94 95 122  94 121 122  95 96 123  95 122 123  96 97 124  96 123 124  97 98 125  97 124 125  98 99 126  98 125 126  99 100 127  99 126 127  100 101 128  100 127 128  101 102 129  101 128 129  102 103 130  102 129 130  103 104 131  103 130 131  104 105 132  104 131 132  105 106 133  105 132 133  106 107 134  106 133 134  </DataArray>
<DataArray  type="UInt32"  Name="offsets"  format="ascii">3 6 9 12 15 18 21 24 27 30 33 36 39 42 45 48 51 54 57 60 63 66 69 72 75 78 81 84 87 90 93 96 99 102 105 108 111 114 117 120 123 126 129 132 135 138 141 144 147 150 153 156 159 162 165 168 171 174 177 180 183 186 189 192 195 198 201 204 207 210 213 216 219 222 225 228 231 234 237 240 243 246 249 252 255 258 261 264 267 270 273 276 279 282 285 288 291 294 297 300 303 306 309 312 315 318 321 324 327 330 333 336 339 342 345 348 351 354 357 360 363 366 369 372 375 378 381 384 387 390 393 396 399 402 405 408 411 414 417 420 423 426 429 432 435 438 441 444 447 450 453 456 459 462 465 468 471 474 477 480 483 486 489 492 495 498 501 504 507 510 513 516 519 522 525 528 531 534 537 540 543 546 549 552 555 558 561 564 567 570 573 576 579 582 585 588 591 594 597 600 603 606 609 612 615 618 621 624 </DataArray>
<DataArray  type="UInt8"  Name="types"  format="ascii">5 5 5 5 5 5 5 5 5 5 5 5 5 5 5 5 5 5 5 5 5 5 5 5 5 5 5 5 5 5 5 5 5 5 5 5 5 5 5 5 5 5 5 5 5 5 5 5 5 5 5 5 5 5 5 5 5 5 5 5 5 5 5 5 5 5 5 5 5 5 5 5 5 5 5 5 5 5 5 5 5 5 5 5 5 5 5 5 5 5 5 5 5 5 5 5 5 5 5 5 5 5 5 5 5 5 5 5 5 5 5 5 5 5 5 5 5 5 5 5 5 5 5 5 5 5 5 5 5 5 5 5 5 5 5 5 5 5 5 5 5 5 5 5 5 5 5 5 5 5 5 5 5 5 5 5 5 5 5 5 5 5 5 5 5 5 5 5 5 5 5 5 5 5 5 5 5 5 5 5 5 5 5 5 5 5 5 5 5 5 5 5 5 5 5 5 5 5 5 5 5 5 5 5 5 5 5 5 </DataArray>
</Cells>
<PointData  Vectors="Displacement"> 
<DataArray  type="Float64"  Name="Displacement"  NumberOfComponents="3" format="ascii">1.1941586674840302e-04 1.5532400193650532e-04 0.0000000000000000e+00  1.4645611721702918e-04 5.9617253163476851e-05 0.0000000000000000e+00  1.5504801654702378e-04 7.5180879525041537e-05 0.0000000000000000e+00  1.4899852595565144e-04 8.6146123412364920e-05 0.0000000000000000e+00  1.4170001075188666e-04 9.6670427684585007e-05 0.0000000000000000e+00  1.3185399681101551e-04 1.0587327286559815e-04 0.0000000000000000e+00  1.2448207272353887e-04 1.1391265169759268e-04 0.0000000000000000e+00  1.1089863067857866e-04 1.1709108803637597e-04 0.0000000000000000e+00  1.0188185678997619e-04 1.1222158103341162e-04 0.0000000000000000e+00  9.3738219671308056e-05 1.0626125935630918e-04 0.0000000000000000e+00  8.6265321341275558e-05 1.0336474903093086e-04 0.0000000000000000e+00  7.6213845318162063e-05 1.0041441601368789e-04 0.0000000000000000e+00  7.1258234606719144e-05 8.9937395616330768e-05 0.0000000000000000e+00  6.5893541565603114e-05 8.7403617034809670e-05 0.0000000000000000e+00  6.0136522791315048e-05 7.8710731347946461e-05 0.0000000000000000e+00  5.1090472707958579e-05 7.2880337721715672e-05 0.0000000000000000e+00  4.0279533242251053e-05 6.7693110619332654e-05 0.0000000000000000e+00  3.1079247924067064e-05 6.3498451690358315e-05 0.0000000000000000e+00  2.2047897328323690e-05 6.4117452645196278e-05 0.0000000000000000e+00  1.5919091696829357e-05 6.6651255420584188e-05 0.0000000000000000e+00  1.1744834192766585e-05 6.2604691359536310e-05 0.0000000000000000e+00  1.0643539730284855e-05 5.3908704351590473e-05 0.0000000000000000e+00  1.3841000670367895e-05 4.5100354106386945e-05 0.0000000000000000e+00  1.8560429578412855e-05 4.2315926241833209e-05 0.0000000000000000e+00  2.2878893985745444e-05 4.3867194745729266e-05 0.0000000000000000e+00  2.6253922953609045e-05 4.3187367887030747e-05 0.0000000000000000e+00  3.6315611105185417e-05 8.1859301730418649e-05 0.0000000000000000e+00  1.5701003526998663e-04 8.2471784618013414e-05 0.0000000000000000e+00  1.5926395978372389e-04 6.3849978142234857e-05 0.0000000000000000e+00  1.4957372796323116e-04 7.8222247738665734e-05 0.0000000000000000e+00  1.4205165908264870e-04 9.0027056368751637e-05 0.0000000000000000e+00  1.3464390188928482e-04 1.0159705914862541e-04 0.0000000000000000e+00  1.2814091961412154e-04 1.1043034849810368e-04 0.0000000000000000e+00  1.2295261481024493e-04 1.1996125914924095e-04 0.0000000000000000e+00  1.1490045569492079e-04 1.2406750680715392e-04 0.0000000000000000e+00  1.0485096840271936e-04 1.1927616192999672e-04 0.0000000000000000e+00  9.6129031279423862e-05 1.1198297147713788e-04 0.0000000000000000e+00  8.9220616391725641e-05 1.0964724776278388e-04 0.0000000000000000e+00  8.4537292063991936e-05 1.0657199217713290e-04 0.0000000000000000e+00  7.7704784032435790e-05 9.5320468239946208e-05 0.0000000000000000e+00  7.3952518397165187e-05 9.3795779627867478e-05 0.0000000000000000e+00  6.5709597972886977e-05 8.4933978165942838e-05 0.0000000000000000e+00  5.8081151316495258e-05 8.1673540381171249e-05 0.0000000000000000e+00  4.4616170560402513e-05 7.7218523042983862e-05 0.0000000000000000e+00  3.2477259202428456e-05 7.2001448080146951e-05 0.0000000000000000e+00  2.2506567856816542e-05 7.1156514084207801e-05 0.0000000000000000e+00  1.8793316667611530e-05 7.1496576227011644e-05 0.0000000000000000e+00  1.6501686903369969e-05 6.4713874873689853e-05 0.0000000000000000e+00  1.7829475863573492e-05 5.4712695511836547e-05 0.0000000000000000e+00  1.9104720680539838e-05 4.5953210699216258e-05 0.0000000000000000e+00  1.9598199579611024e-05 4.3352998942238615e-05 0.0000000000000000e+00  2.1190939582435380e-05 4.6118278647655332e-05 0.0000000000000000e+00  2.0226311069901638e-05 5.2014505854942949e-05 0.0000000000000000e+00  1.9027512667601248e-05 6.7417609929783893e-05 0.0000000000000000e+00  1.5605732510115672e-04 4.7650179205163614e-05 0.0000000000000000e+00  1.5796769123140600e-04 6.7858725292050648e-05 0.0000000000000000e+00  1.4643231787243513e-04 8.4302648255952533e-05 0.0000000000000000e+00  1.3451040598061291e-04 9.4738216708610936e-05 0.0000000000000000e+00  1.2826819742270114e-04 1.0378420633929994e-04 0.0000000000000000e+00  1.2385802069127844e-04 1.1052685530901802e-04 0.0000000000000000e+00  1.2026798025513416e-04 1.2062044471503038e-04 0.0000000000000000e+00  1.1461187300511949e-04 1.2803039764588565e-04 0.0000000000000000e+00  1.0545706163449826e-04 1.2476113950015473e-04 0.0000000000000000e+00  9.6536536061692674e-05 1.1545436696016557e-04 0.0000000000000000e+00  9.0135103280424147e-05 1.1110870910337620e-04 0.0000000000000000e+00  8.8367939022951196e-05 1.0705181483786701e-04 0.0000000000000000e+00  8.3433095418913912e-05 9.7585139869132615e-05 0.0000000000000000e+00  8.0711626223948910e-05 9.5356893344021492e-05 0.0000000000000000e+00  7.0391845144462549e-05 9.0444267487145799e-05 0.0000000000000000e+00  5.9887985959801912e-05 8.8860930981258867e-05 0.0000000000000000e+00  4.5483179921951278e-05 8.3876638257720135e-05 0.0000000000000000e+00  3.3217343528049117e-05 7.8058422984766384e-05 0.0000000000000000e+00  2.2975346850308318e-05 7.4403855349667667e-05 0.0000000000000000e+00  2.1342820079450457e-05 7.1422345050327484e-05 0.0000000000000000e+00  2.0855628126554458e-05 6.2856768439841431e-05 0.0000000000000000e+00  2.0112890471019041e-05 5.3806324547669189e-05 0.0000000000000000e+00  2.1094839501737761e-05 4.5877975635722312e-05 0.0000000000000000e+00  1.9713980808482689e-05 4.4004377473651831e-05 0.0000000000000000e+00  1.9121288525313720e-05 4.7773380595724612e-05 0.0000000000000000e+00  1.7333951281147325e-05 5.5087482449130548e-05 0.0000000000000000e+00  1.6931029848817890e-05 6.1116162137129923e-05 0.0000000000000000e+00  1.4264979145578433e-04 1.2498592249980975e-05 0.0000000000000000e+00  1.4087820146976881e-04 6.8931258306505344e-05 0.0000000000000000e+00  1.3100694892605015e-04 9.1753741455630455e-05 0.0000000000000000e+00  1.2532540228922263e-04 1.0079894177728900e-04 0.0000000000000000e+00  1.1856061518139374e-04 1.0666876701927187e-04 0.0000000000000000e+00  1.1587329644621227e-04 1.1120414659282719e-04 0.0000000000000000e+00  1.1375004263966625e-04 1.2216768316539601e-04 0.0000000000000000e+00  1.1113498555796435e-04 1.3238297034318656e-04 0.0000000000000000e+00  1.0588517678299632e-04 1.2881683164226885e-04 0.0000000000000000e+00  9.8611895083927531e-05 1.2053390272706958e-04 0.0000000000000000e+00  9.5612953712771238e-05 1.0927390775126076e-04 0.0000000000000000e+00  9.6886792118484839e-05 1.0873736639644613e-04 0.0000000000000000e+00  9.0161161196189175e-05 1.0221733457999713e-04 0.0000000000000000e+00  8.1590338409433122e-05 9.8348699335539850e-05 0.0000000000000000e+00  6.9667428469539507e-05 1.0040573677192122e-04 0.0000000000000000e+00  5.9006115194414633e-05 9.6706906712171889e-05 0.0000000000000000e+00  4.7551815419622814e-05 9.0249988092756320e-05 0.0000000000000000e+00  3.7522279065375501e-05 8.4680570305141473e-05 0.0000000000000000e+00  2.7989480902931795e-05 7.6271305099467570e-05 0.0000000000000000e+00  2.7394363972380585e-05 7.0060138544147688e-05 0.0000000000000000e+00  2.6440441166590212e-05 6.3831007479660316e-05 0.0000000000000000e+00  2.5336404902026701e-05 5.4253578255313509e-05 0.0000000000000000e+00  2.4494081166947539e-05 4.7549888520974015e-05 0.0000000000000000e+00  2.1726073779078382e-05 4.5877525680270270e-05 0.0000000000000000e+00  1.8928150975784021e-05 5.1518165494155750e-05 0.0000000000000000e+00  1.6533293430835910e-05 5.5853199556786747e-05 0.0000000000000000e+00  1.7836430785974966e-05 5.8269224024413875e-05 0.0000000000000000e+00  5.6199058003407418e-05 -6.6449041314716351e-05 0.0000000000000000e+00  1.0007784411819613e-04 6.8813292840533228e-05 0.0000000000000000e+00  1.1416400871397002e-04 9.3668933329588852e-05 0.0000000000000000e+00  1.1613002648569103e-04 1.0321773457234854e-04 0.0000000000000000e+00  1.1289964358341375e-04 1.1004782762798626e-04 0.0000000000000000e+00  1.1003091321337741e-04 1.1322728829597216e-04 0.0000000000000000e+00  1.0467707096452827e-04 1.2391037243405416e-04 0.0000000000000000e+00  1.0720856934651883e-04 1.3416245135828593e-04 0.0000000000000000e+00  1.0658247797431997e-04 1.3043590587033462e-04 0.0000000000000000e+00  1.0680051638363723e-04 1.2363300872712541e-04 0.0000000000000000e+00  1.0350091761394808e-04 1.0948231059932013e-04 0.0000000000000000e+00  9.9436872240133705e-05 1.0884688542027705e-04 0.0000000000000000e+00  9.5635201777379366e-05 1.1050008026307497e-04 0.0000000000000000e+00  7.9298941400215118e-05 1.0614085547795723e-04 0.0000000000000000e+00  6.8484836128800193e-05 1.0818740353400521e-04 0.0000000000000000e+00  6.0555532797523838e-05 1.0196343282255092e-04 0.0000000000000000e+00  5.3803340110687084e-05 9.6352159786912964e-05 0.0000000000000000e+00  4.3424699305975800e-05 8.9861595662213197e-05 0.0000000000000000e+00  3.6282433364712248e-05 7.9402002100055654e-05 0.0000000000000000e+00  3.3246188488992880e-05 7.0905750962667769e-05 0.0000000000000000e+00  3.2826734485931297e-05 6.4261235694029357e-05 0.0000000000000000e+00  3.1214621544880210e-05 5.6410146960364746e-05 0.0000000000000000e+00  2.7514466914386492e-05 4.9025328143579169e-05 0.0000000000000000e+00  2.1360359825942556e-05 4.8634648615956228e-05 0.0000000000000000e+00  1.8623102300913049e-05 5.4106977192768686e-05 0.0000000000000000e+00  1.8162602551907976e-05 5.5725161904039071e-05 0.0000000000000000e+00  1.9715118284617151e-05 5.5977374957035171e-05 0.0000000000000000e+00  </DataArray> 
</PointData> 
</Piece>
</UnstructuredGrid>
</VTKFile>