<?xml version="1.0"?>
<VTKFile type="UnstructuredGrid"  version="0.1"  >
<UnstructuredGrid>
<Piece  NumberOfPoints="135" NumberOfCells="208">
<Points>
<DataArray  type="Float64"  NumberOfComponents="3"  format="ascii">1 1 0  1.076923076923077 1 0  1.153846153846154 1 0  1.230769230769231 1 0  1.307692307692308 1 0  1.384615384615385 1 0  1.461538461538462 1 0  1.538461538461538 1 0  1.615384615384615 1 0  1.692307692307692 1 0  1.769230769230769 1 0  1.846153846153846 1 0  1.923076923076923 1 0  2 1 0  2.076923076923077 1 0  2.153846153846154 1 0  2.230769230769231 1 0  2.307692307692307 1 0  2.384615384615385 1 0  2.461538461538462 1 0  2.538461538461538 1 0  2.615384615384615 1 0  2.692307692307693 1 0  2.769230769230769 1 0  2.846153846153846 1 0  2.923076923076923 1 0  3 1 0  1 1.0625 0  1.076923076923077 1.0625 0  1.153846153846154 1.0625 0  1.230769230769231 1.0625 0  1.307692307692308 1.0625 0  1.384615384615385 1.0625 0  1.461538461538462 1.0625 0  1.538461538461538 1.0625 0  1.615384615384615 1.0625 0  1.692307692307692 1.0625 0  1.769230769230769 1.0625 0  1.846153846153846 1.0625 0  1.923076923076923 1.0625 0  2 1.0625 0  2.076923076923077 1.0625 0  2.153846153846154 1.0625 0  2.230769230769231 1.0625 0  2.307692307692307 1.0625 0  2.384615384615385 1.0625 0  2.461538461538462 1.0625 0  2.538461538461538 1.0625 0  2.615384615384615 1.0625 0  2.692307692307693 1.0625 0  2.769230769230769 1.0625 0  2.846153846153846 1.0625 0  2.923076923076923 1.0625 0  3 1.0625 0  1 1.125 0  1.076923076923077 1.125 0  1.153846153846154 1.125 0  1.230769230769231 1.125 0  1.307692307692308 1.125 0  1.384615384615385 1.125 0  1.461538461538462 1.125 0  1.538461538461538 1.125 0  1.615384615384615 1.125 0  1.692307692307692 1.125 0  1.769230769230769 1.125 0  1.846153846153846 1.125 0  1.923076923076923 1.125 0  2 1.125 0  2.076923076923077 1.125 0  2.153846153846154 1.125 0  2.230769230769231 1.125 0  2.307692307692307 1.125 0  2.384615384615385 1.125 0  2.461538461538462 1.125 0  2.538461538461538 1.125 0  2.615384615384615 1.125 0  2.692307692307693 1.125 0  2.769230769230769 1.125 0  2.846153846153846 1.125 0  2.923076923076923 1.125 0  3 1.125 0  1 1.1875 0  1.076923076923077 1.1875 0  1.153846153846154 1.1875 0  1.230769230769231 1.1875 0  1.307692307692308 1.1875 0  1.384615384615385 1.1875 0  1.461538461538462 1.1875 0  1.538461538461538 1.1875 0  1.615384615384615 1.1875 0  1.692307692307692 1.1875 0  1.769230769230769 1.1875 0  1.846153846153846 1.1875 0  1.923076923076923 1.1875 0  2 1.1875 0  2.076923076923077 1.1875 0  2.153846153846154 1.1875 0  2.230769230769231 1.1875 0  2.307692307692307 1.1875 0  2.384615384615385 1.1875 0  2.461538461538462 1.1875 0  2.538461538461538 1.1875 0  2.615384615384615 1.1875 0  2.692307692307693 1.1875 0  2.769230769230769 1.1875 0  2.846153846153846 1.1875 0  2.923076923076923 1.1875 0  3 1.1875 0  1 1.25 0  1.076923076923077 1.25 0  1.153846153846154 1.25 0  1.230769230769231 1.25 0  1.307692307692308 1.25 0  1.384615384615385 1.25 0  1.461538461538462 1.25 0  1.538461538461538 1.25 0  1.615384615384615 1.25 0  1.692307692307692 1.25 0  1.769230769230769 1.25 0  1.846153846153846 1.25 0  1.923076923076923 1.25 0  2 1.25 0  2.076923076923077 1.25 0  2.153846153846154 1.25 0  2.230769230769231 1.25 0  2.307692307692307 1.25 0  2.384615384615385 1.25 0  2.461538461538462 1.25 0  2.538461538461538 1.25 0  2.615384615384615 1.25 0  2.692307692307693 1.25 0  2.769230769230769 1.25 0  2.846153846153846 1.25 0  2.923076923076923 1.25 0  3 1.25 0  </DataArray>
</Points>
<Cells>
<DataArray  type="UInt32"  Name="connectivity"  format="ascii">0 1 28  0 27 28  1 2 29  1 28 29  2 3 30  2 29 30  3 4 31  3 30 31  4 5 32  4 31 32  5 6 33  5 32 33  6 7 34  6 33 34  7 8 35  7 34 35  8 9 36  8 35 36  9 10 37  9 36 37  10 11 38  10 37 38  11 12 39  11 38 39  12 13 40  12 39 40  13 14 41  13 40 41  14 15 42  14 41 42  15 16 43  15 42 43  16 17 44  16 43 44  17 18 45  17 44 45  18 19 46  18 45 46  19 20 47  19 46 47  20 21 48  20 47 48  21 22 49  21 48 49  22 23 50  22 49 50  23 24 51  23 50 51  24 25 52  24 51 52  25 26 53  25 52 53  27 28 55  27 54 55  28 29 56  28 55 56  29 30 57  29 56 57  30 31 58  30 57 58  31 32 59  31 58 59  32 33 60  32 59 60  33 34 61  33 60 61  34 35 62  34 61 62  35 36 63  35 62 63  36 37 64  36 63 64  37 38 65  37 64 65  38 39 66  38 65 66  39 40 67  39 66 67  40 41 68  40 67 68  41 42 69  41 68 69  42 43 70  42 69 70  43 44 71  43 70 71  44 45 72  44 71 72  45 46 73  45 72 73  46 47 74  46 73 74  47 48 75  47 74 75  48 49 76  48 75 76  49 50 77  49 76 77  50 51 78  50 77 78  51 52 79  51 78 79  52 53 80  52 79 80  54 55 82  54 81 82  55 56 83  55 82 83  56 57 84  56 83 84  57 58 85  57 84 85  58 59 86  58 85 86  59 60 87  59 86 87  60 61 88  60 87 88  61 62 89  61 88 89  62 63 90  62 89 90  63 64 91  63 90 91  64 65 92  64 91 92  65 66 93  65 92 93  66 67 94  66 93 94  67 68 95  67 94 95  68 69 96  68 95 96  69 70 97  69 96 97  70 71 98  70 97 98  71 72 99  71 98 99  72 73 100  72 99 100  73 74 101  73 100 101  74 75 102  74 101 102  75 76 103  75 102 103  76 77 104  76 103 104  77 78 105  77 104 105  78 79 106  78 105 106  79 80 107  79 106 107  81 82 109  81 108 109  82 83 110  82 109 110  83 84 111  83 110 111  84 85 112  84 111 112  85 86 113  85 112 113  86 87 114  86 113 114  87 88 115  87 114 115  88 89 116  88 115 116  89 90 117  89 116 117  90 91 118  90 117 118  91 92 119  91 118 119  92 93 120  92 119 120  93 94 121  93 120 121  94 95 122  94 121 122  95 96 123  95 122 123  96 97 124  96 123 124  97 98 125  97 124 125  98 99 126  98 125 126  99 100 127  99 126 127  100 101 128  100 127 128  101 102 129  101 128 129  102 103 130  102 129 130  103 104 131  103 130 131  104 105 132  104 131 132  105 106 133  105 132 133  106 107 134  106 133 134  </DataArray>
<DataArray  type="UInt32"  Name="offsets"  format="ascii">3 6 9 12 15 18 21 24 27 30 33 36 39 42 45 48 51 54 57 60 63 66 69 72 75 78 81 84 87 90 93 96 99 102 105 108 111 114 117 120 123 126 129 132 135 138 141 144 147 150 153 156 159 162 165 168 171 174 177 180 183 186 189 192 195 198 201 204 207 210 213 216 219 222 225 228 231 234 237 240 243 246 249 252 255 258 261 264 267 270 273 276 279 282 285 288 291 294 297 300 303 306 309 312 315 318 321 324 327 330 333 336 339 342 345 348 351 354 357 360 363 366 369 372 375 378 381 384 387 390 393 396 399 402 405 408 411 414 417 420 423 426 429 432 435 438 441 444 447 450 453 456 459 462 465 468 471 474 477 480 483 486 489 492 495 498 501 504 507 510 513 516 519 522 525 528 531 534 537 540 543 546 549 552 555 558 561 564 567 570 573 576 579 582 585 588 591 594 597 600 603 606 609 612 615 618 621 624 </DataArray>
<DataArray  type="UInt8"  Name="types"  format="ascii">5 5 5 5 5 5 5 5 5 5 5 5 5 5 5 5 5 5 5 5 5 5 5 5 5 5 5 5 5 5 5 5 5 5 5 5 5 5 5 5 5 5 5 5 5 5 5 5 5 5 5 5 5 5 5 5 5 5 5 5 5 5 5 5 5 5 5 5 5 5 5 5 5 5 5 5 5 5 5 5 5 5 5 5 5 5 5 5 5 5 5 5 5 5 5 5 5 5 5 5 5 5 5 5 5 5 5 5 5 5 5 5 5 5 5 5 5 5 5 5 5 5 5 5 5 5 5 5 5 5 5 5 5 5 5 5 5 5 5 5 5 5 5 5 5 5 5 5 5 5 5 5 5 5 5 5 5 5 5 5 5 5 5 5 5 5 5 5 5 5 5 5 5 5 5 5 5 5 5 5 5 5 5 5 5 5 5 5 5 5 5 5 5 5 5 5 5 5 5 5 5 5 5 5 5 5 5 5 </DataArray>
</Cells>
<PointData  Vectors="Displacement"> 
<DataArray  type="Float64"  Name="Displacement"  NumberOfComponents="3" format="ascii">5.1171561721461713e-04 1.6686228565152719e-04 0.0000000000000000e+00  5.5833763040372098e-04 6.6741694479511418e-05 0.0000000000000000e+00  5.7166930368965948e-04 1.1658456944075293e-04 0.0000000000000000e+00  5.6194557502439128e-04 1.5551177191837950e-04 0.0000000000000000e+00  5.4903250020664810e-04 1.8574119388117694e-04 0.0000000000000000e+00  5.3503215984410590e-04 2.0797836517765775e-04 0.0000000000000000e+00  5.1947870833092536e-04 2.1943671803783231e-04 0.0000000000000000e+00  5.0757922676867412e-04 2.2819814794086804e-04 0.0000000000000000e+00  4.9739297690447846e-04 2.3100441033686042e-04 0.0000000000000000e+00  4.8670785249461886e-04 2.3456691211788959e-04 0.0000000000000000e+00  4.7534933794732238e-04 2.3276481425613598e-04 0.0000000000000000e+00  4.6724369383108585e-04 2.2898845392890283e-04 0.0000000000000000e+00  4.6079777283548098e-04 2.2105958222711395e-04 0.0000000000000000e+00  4.5635588151193379e-04 2.1454479741498278e-04 0.0000000000000000e+00  4.4977251205493727e-04 2.0702477677713379e-04 0.0000000000000000e+00  4.4919790753886895e-04 1.9789649394617027e-04 0.0000000000000000e+00  4.4550333653444639e-04 1.9276827333808920e-04 0.0000000000000000e+00  4.4455229107281312e-04 1.8097344860690850e-04 0.0000000000000000e+00  4.4541799663427834e-04 1.7196903585993032e-04 0.0000000000000000e+00  4.4673597097989867e-04 1.6785836176972860e-04 0.0000000000000000e+00  4.4647140932657637e-04 1.6603127444265856e-04 0.0000000000000000e+00  4.4649416685160748e-04 1.6414718919488327e-04 0.0000000000000000e+00  4.4731601654373048e-04 1.6134643186730747e-04 0.0000000000000000e+00  4.5180116184091051e-04 1.6132907222017064e-04 0.0000000000000000e+00  4.5694074853381829e-04 1.6919209278380690e-04 0.0000000000000000e+00  4.6522397941095464e-04 1.7809209944201333e-04 0.0000000000000000e+00  4.8306439275430137e-04 2.3740788718161157e-04 0.0000000000000000e+00  5.5214566828767735e-04 7.0258784206877811e-05 0.0000000000000000e+00  5.5276106226432166e-04 7.1399531707695260e-05 0.0000000000000000e+00  5.4106090479843041e-04 1.1751765243385387e-04 0.0000000000000000e+00  5.3332885829972970e-04 1.5913235226056206e-04 0.0000000000000000e+00  5.2510908141463301e-04 1.9073723920555745e-04 0.0000000000000000e+00  5.1828288355908398e-04 2.1355107976051704e-04 0.0000000000000000e+00  5.0912391855205592e-04 2.2644309558319446e-04 0.0000000000000000e+00  5.0080856009578783e-04 2.3281909226516433e-04 0.0000000000000000e+00  4.9307196438312239e-04 2.3618176647008930e-04 0.0000000000000000e+00  4.8583034310063403e-04 2.4011891426144714e-04 0.0000000000000000e+00  4.7818551009445707e-04 2.3820321088408906e-04 0.0000000000000000e+00  4.7132033352074000e-04 2.3197783028432403e-04 0.0000000000000000e+00  4.6694155829314122e-04 2.2469914766024435e-04 0.0000000000000000e+00  4.6022391619617378e-04 2.1793897726280555e-04 0.0000000000000000e+00  4.5759847489813767e-04 2.0853939135921065e-04 0.0000000000000000e+00  4.5560097642888671e-04 1.9939960318763843e-04 0.0000000000000000e+00  4.5441570663366050e-04 1.9393660482942086e-04 0.0000000000000000e+00  4.5339695430629518e-04 1.8216677740578663e-04 0.0000000000000000e+00  4.5117247733589971e-04 1.7309084593297928e-04 0.0000000000000000e+00  4.5014062858129804e-04 1.6862823972491232e-04 0.0000000000000000e+00  4.5025919221387703e-04 1.6673305569731513e-04 0.0000000000000000e+00  4.4935718508151148e-04 1.6411682754360381e-04 0.0000000000000000e+00  4.5054136326602040e-04 1.6063399435580601e-04 0.0000000000000000e+00  4.5039222371050778e-04 1.6119918187803086e-04 0.0000000000000000e+00  4.5123286076734144e-04 1.6817533275172039e-04 0.0000000000000000e+00  4.5086897207436365e-04 1.8323356026683356e-04 0.0000000000000000e+00  4.5166378982629181e-04 2.1327103800093807e-04 0.0000000000000000e+00  5.2057780387058613e-04 2.7242805632840592e-05 0.0000000000000000e+00  5.2715274045876822e-04 7.6423833555082187e-05 0.0000000000000000e+00  5.1547824232465458e-04 1.2299601142425707e-04 0.0000000000000000e+00  5.0790987512694104e-04 1.6268552660413720e-04 0.0000000000000000e+00  5.0445547136454593e-04 1.9435988622614695e-04 0.0000000000000000e+00  5.0126062575383580e-04 2.1608511563090657e-04 0.0000000000000000e+00  4.9801351724550365e-04 2.3039263137315723e-04 0.0000000000000000e+00  4.9436381489806466e-04 2.3638166632228866e-04 0.0000000000000000e+00  4.8909175117891268e-04 2.3952463720175606e-04 0.0000000000000000e+00  4.8381192334257238e-04 2.4356265222504810e-04 0.0000000000000000e+00  4.8004949945321248e-04 2.4210434971381209e-04 0.0000000000000000e+00  4.7470477873486370e-04 2.3496565277427131e-04 0.0000000000000000e+00  4.6972761950663422e-04 2.2771814582530766e-04 0.0000000000000000e+00  4.6606632537508582e-04 2.1957851993693555e-04 0.0000000000000000e+00  4.6425143319149499e-04 2.0856201901873898e-04 0.0000000000000000e+00  4.6272316946511540e-04 1.9990224209287164e-04 0.0000000000000000e+00  4.6147755987980952e-04 1.9426355258704990e-04 0.0000000000000000e+00  4.6064430802194212e-04 1.8393796162186768e-04 0.0000000000000000e+00  4.5705339544459852e-04 1.7543379140319776e-04 0.0000000000000000e+00  4.5481646209872200e-04 1.7002994573902370e-04 0.0000000000000000e+00  4.5158043241529274e-04 1.6726277623946162e-04 0.0000000000000000e+00  4.5054508505675087e-04 1.6397642421799087e-04 0.0000000000000000e+00  4.4894946736068111e-04 1.6190266098366237e-04 0.0000000000000000e+00  4.4468498685344980e-04 1.6361232650878552e-04 0.0000000000000000e+00  4.4239623650112056e-04 1.6953364893391486e-04 0.0000000000000000e+00  4.4040820297778973e-04 1.8489901574755902e-04 0.0000000000000000e+00  4.4200607605249188e-04 2.0493378378197796e-04 0.0000000000000000e+00  4.7422275905987529e-04 -1.3797940228005101e-05 0.0000000000000000e+00  4.8472493029082508e-04 7.5363279330549688e-05 0.0000000000000000e+00  4.8065834349398609e-04 1.2775777331390360e-04 0.0000000000000000e+00  4.8121163918175033e-04 1.6456857299685851e-04 0.0000000000000000e+00  4.8306896587941667e-04 1.9517016970808026e-04 0.0000000000000000e+00  4.8518212697654464e-04 2.1635712956116914e-04 0.0000000000000000e+00  4.8788993148183500e-04 2.3000895215402340e-04 0.0000000000000000e+00  4.8643691966532878e-04 2.3778592727559665e-04 0.0000000000000000e+00  4.8359071175549514e-04 2.4113207273685776e-04 0.0000000000000000e+00  4.8218659413742633e-04 2.4548360914486650e-04 0.0000000000000000e+00  4.8003175600902303e-04 2.4438540954914456e-04 0.0000000000000000e+00  4.7627682986826886e-04 2.3650864411915923e-04 0.0000000000000000e+00  4.7564702512791277e-04 2.2919690446711349e-04 0.0000000000000000e+00  4.7346610542882807e-04 2.2023067788111032e-04 0.0000000000000000e+00  4.7246670058590515e-04 2.0807821503775903e-04 0.0000000000000000e+00  4.6973486393912838e-04 2.0056821669079146e-04 0.0000000000000000e+00  4.6774944357548895e-04 1.9516385992209055e-04 0.0000000000000000e+00  4.6585203292566257e-04 1.8434565466976774e-04 0.0000000000000000e+00  4.6316148560728395e-04 1.7748972583461666e-04 0.0000000000000000e+00  4.5941529620609277e-04 1.7246760236546799e-04 0.0000000000000000e+00  4.5160776327389420e-04 1.6892031408422320e-04 0.0000000000000000e+00  4.4907234318197211e-04 1.6352000272278107e-04 0.0000000000000000e+00  4.4511151708196881e-04 1.6518141013238284e-04 0.0000000000000000e+00  4.3950249474629881e-04 1.6612798301121108e-04 0.0000000000000000e+00  4.3541269744222001e-04 1.7115812968152737e-04 0.0000000000000000e+00  4.3362937676182908e-04 1.8431638094370523e-04 0.0000000000000000e+00  4.3244083869736533e-04 1.9996239347531720e-04 0.0000000000000000e+00  3.5435604529563915e-04 -1.0929478344745360e-04 0.0000000000000000e+00  4.1684192165320416e-04 7.1403970774861004e-05 0.0000000000000000e+00  4.4095815745210715e-04 1.2543603736323082e-04 0.0000000000000000e+00  4.5318616030554592e-04 1.6096812113150638e-04 0.0000000000000000e+00  4.6092570297282816e-04 1.9186098402934769e-04 0.0000000000000000e+00  4.7136262101939386e-04 2.1334171326878090e-04 0.0000000000000000e+00  4.7585773305704410e-04 2.2787789943001452e-04 0.0000000000000000e+00  4.8075640987772967e-04 2.3876753624812704e-04 0.0000000000000000e+00  4.7996342220160264e-04 2.4197211574769007e-04 0.0000000000000000e+00  4.8011742771118403e-04 2.4608367189066422e-04 0.0000000000000000e+00  4.8068839280350240e-04 2.4443175792415576e-04 0.0000000000000000e+00  4.8275165467067115e-04 2.3688597593103739e-04 0.0000000000000000e+00  4.8204442614416883e-04 2.2891057843507341e-04 0.0000000000000000e+00  4.8215948773038209e-04 2.2034345081155092e-04 0.0000000000000000e+00  4.7966974896685236e-04 2.0809899460656894e-04 0.0000000000000000e+00  4.7553962143052052e-04 2.0252317939241816e-04 0.0000000000000000e+00  4.7445415028005719e-04 1.9547834119332702e-04 0.0000000000000000e+00  4.7095753862813736e-04 1.8513571123101992e-04 0.0000000000000000e+00  4.6797601893091786e-04 1.7991304786269959e-04 0.0000000000000000e+00  4.6107419722292903e-04 1.7585517060020545e-04 0.0000000000000000e+00  4.5540324299365135e-04 1.7253432588851942e-04 0.0000000000000000e+00  4.4804640401955979e-04 1.6482942852659275e-04 0.0000000000000000e+00  4.4274167360020954e-04 1.6817234421644817e-04 0.0000000000000000e+00  4.3774351941567907e-04 1.6865286556689963e-04 0.0000000000000000e+00  4.3108210553934772e-04 1.7408658616498333e-04 0.0000000000000000e+00  4.2548277402219256e-04 1.8509706891311096e-04 0.0000000000000000e+00  4.2384063547817988e-04 2.0127915662275763e-04 0.0000000000000000e+00  </DataArray> 
</PointData> 
</Piece>
</UnstructuredGrid>
</VTKFile>