<?xml version="1.0"?>
<VTKFile type="UnstructuredGrid"  version="0.1"  >
<UnstructuredGrid>
<Piece  NumberOfPoints="135" NumberOfCells="208">
<Points>
<DataArray  type="Float64"  NumberOfComponents="3"  format="ascii">1 1 0  1.076923076923077 1 0  1.153846153846154 1 0  1.230769230769231 1 0  1.307692307692308 1 0  1.384615384615385 1 0  1.461538461538462 1 0  1.538461538461538 1 0  1.615384615384615 1 0  1.692307692307692 1 0  1.769230769230769 1 0  1.846153846153846 1 0  1.923076923076923 1 0  2 1 0  2.076923076923077 1 0  2.153846153846154 1 0  2.230769230769231 1 0  2.307692307692307 1 0  2.384615384615385 1 0  2.461538461538462 1 0  2.538461538461538 1 0  2.615384615384615 1 0  2.692307692307693 1 0  2.769230769230769 1 0  2.846153846153846 1 0  2.923076923076923 1 0  3 1 0  1 1.0625 0  1.076923076923077 1.0625 0  1.153846153846154 1.0625 0  1.230769230769231 1.0625 0  1.307692307692308 1.0625 0  1.384615384615385 1.0625 0  1.461538461538462 1.0625 0  1.538461538461538 1.0625 0  1.615384615384615 1.0625 0  1.692307692307692 1.0625 0  1.769230769230769 1.0625 0  1.846153846153846 1.0625 0  1.923076923076923 1.0625 0  2 1.0625 0  2.076923076923077 1.0625 0  2.153846153846154 1.0625 0  2.230769230769231 1.0625 0  2.307692307692307 1.0625 0  2.384615384615385 1.0625 0  2.461538461538462 1.0625 0  2.538461538461538 1.0625 0  2.615384615384615 1.0625 0  2.692307692307693 1.0625 0  2.769230769230769 1.0625 0  2.846153846153846 1.0625 0  2.923076923076923 1.0625 0  3 1.0625 0  1 1.125 0  1.076923076923077 1.125 0  1.153846153846154 1.125 0  1.230769230769231 1.125 0  1.307692307692308 1.125 0  1.384615384615385 1.125 0  1.461538461538462 1.125 0  1.538461538461538 1.125 0  1.615384615384615 1.125 0  1.692307692307692 1.125 0  1.769230769230769 1.125 0  1.846153846153846 1.125 0  1.923076923076923 1.125 0  2 1.125 0  2.076923076923077 1.125 0  2.153846153846154 1.125 0  2.230769230769231 1.125 0  2.307692307692307 1.125 0  2.384615384615385 1.125 0  2.461538461538462 1.125 0  2.538461538461538 1.125 0  2.615384615384615 1.125 0  2.692307692307693 1.125 0  2.769230769230769 1.125 0  2.846153846153846 1.125 0  2.923076923076923 1.125 0  3 1.125 0  1 1.1875 0  1.076923076923077 1.1875 0  1.153846153846154 1.1875 0  1.230769230769231 1.1875 0  1.307692307692308 1.1875 0  1.384615384615385 1.1875 0  1.461538461538462 1.1875 0  1.538461538461538 1.1875 0  1.615384615384615 1.1875 0  1.692307692307692 1.1875 0  1.769230769230769 1.1875 0  1.846153846153846 1.1875 0  1.923076923076923 1.1875 0  2 1.1875 0  2.076923076923077 1.1875 0  2.153846153846154 1.1875 0  2.230769230769231 1.1875 0  2.307692307692307 1.1875 0  2.384615384615385 1.1875 0  2.461538461538462 1.1875 0  2.538461538461538 1.1875 0  2.615384615384615 1.1875 0  2.692307692307693 1.1875 0  2.769230769230769 1.1875 0  2.846153846153846 1.1875 0  2.923076923076923 1.1875 0  3 1.1875 0  1 1.25 0  1.076923076923077 1.25 0  1.153846153846154 1.25 0  1.230769230769231 1.25 0  1.307692307692308 1.25 0  1.384615384615385 1.25 0  1.461538461538462 1.25 0  1.538461538461538 1.25 0  1.615384615384615 1.25 0  1.692307692307692 1.25 0  1.769230769230769 1.25 0  1.846153846153846 1.25 0  1.923076923076923 1.25 0  2 1.25 0  2.076923076923077 1.25 0  2.153846153846154 1.25 0  2.230769230769231 1.25 0  2.307692307692307 1.25 0  2.384615384615385 1.25 0  2.461538461538462 1.25 0  2.538461538461538 1.25 0  2.615384615384615 1.25 0  2.692307692307693 1.25 0  2.769230769230769 1.25 0  2.846153846153846 1.25 0  2.923076923076923 1.25 0  3 1.25 0  </DataArray>
</Points>
<Cells>
<DataArray  type="UInt32"  Name="connectivity"  format="ascii">0 1 28  0 27 28  1 2 29  1 28 29  2 3 30  2 29 30  3 4 31  3 30 31  4 5 32  4 31 32  5 6 33  5 32 33  6 7 34  6 33 34  7 8 35  7 34 35  8 9 36  8 35 36  9 10 37  9 36 37  10 11 38  10 37 38  11 12 39  11 38 39  12 13 40  12 39 40  13 14 41  13 40 41  14 15 42  14 41 42  15 16 43  15 42 43  16 17 44  16 43 44  17 18 45  17 44 45  18 19 46  18 45 46  19 20 47  19 46 47  20 21 48  20 47 48  21 22 49  21 48 49  22 23 50  22 49 50  23 24 51  23 50 51  24 25 52  24 51 52  25 26 53  25 52 53  27 28 55  27 54 55  28 29 56  28 55 56  29 30 57  29 56 57  30 31 58  30 57 58  31 32 59  31 58 59  32 33 60  32 59 60  33 34 61  33 60 61  34 35 62  34 61 62  35 36 63  35 62 63  36 37 64  36 63 64  37 38 65  37 64 65  38 39 66  38 65 66  39 40 67  39 66 67  40 41 68  40 67 68  41 42 69  41 68 69  42 43 70  42 69 70  43 44 71  43 70 71  44 45 72  44 71 72  45 46 73  45 72 73  46 47 74  46 73 74  47 48 75  47 74 75  48 49 76  48 75 76  49 50 77  49 76 77  50 51 78  50 77 78  51 52 79  51 78 79  52 53 80  52 79 80  54 55 82  54 81 82  55 56 83  55 82 83  56 57 84  56 83 84  57 58 85  57 84 85  58 59 86  58 85 86  59 60 87  59 86 87  60 61 88  60 87 88  61 62 89  61 88 89  62 63 90  62 89 90  63 64 91  63 90 91  64 65 92  64 91 92  65 66 93  65 92 93  66 67 94  66 93 94  67 68 95  67 94 95  68 69 96  68 95 96  69 70 97  69 96 97  70 71 98  70 97 98  71 72 99  71 98 99  72 73 100  72 99 100  73 74 101  73 100 101  74 75 102  74 101 102  75 76 103  75 102 103  76 77 104  76 103 104  77 78 105  77 104 105  78 79 106  78 105 106  79 80 107  79 106 107  81 82 109  81 108 109  82 83 110  82 109 110  83 84 111  83 110 111  84 85 112  84 111 112  85 86 113  85 112 113  86 87 114  86 113 114  87 88 115  87 114 115  88 89 116  88 115 116  89 90 117  89 116 117  90 91 118  90 117 118  91 92 119  91 118 119  92 93 120  92 119 120  93 94 121  93 120 121  94 95 122  94 121 122  95 96 123  95 122 123  96 97 124  96 123 124  97 98 125  97 124 125  98 99 126  98 125 126  99 100 127  99 126 127  100 101 128  100 127 128  101 102 129  101 128 129  102 103 130  102 129 130  103 104 131  103 130 131  104 105 132  104 131 132  105 106 133  105 132 133  106 107 134  106 133 134  </DataArray>
<DataArray  type="UInt32"  Name="offsets"  format="ascii">3 6 9 12 15 18 21 24 27 30 33 36 39 42 45 48 51 54 57 60 63 66 69 72 75 78 81 84 87 90 93 96 99 102 105 108 111 114 117 120 123 126 129 132 135 138 141 144 147 150 153 156 159 162 165 168 171 174 177 180 183 186 189 192 195 198 201 204 207 210 213 216 219 222 225 228 231 234 237 240 243 246 249 252 255 258 261 264 267 270 273 276 279 282 285 288 291 294 297 300 303 306 309 312 315 318 321 324 327 330 333 336 339 342 345 348 351 354 357 360 363 366 369 372 375 378 381 384 387 390 393 396 399 402 405 408 411 414 417 420 423 426 429 432 435 438 441 444 447 450 453 456 459 462 465 468 471 474 477 480 483 486 489 492 495 498 501 504 507 510 513 516 519 522 525 528 531 534 537 540 543 546 549 552 555 558 561 564 567 570 573 576 579 582 585 588 591 594 597 600 603 606 609 612 615 618 621 624 </DataArray>
<DataArray  type="UInt8"  Name="types"  format="ascii">5 5 5 5 5 5 5 5 5 5 5 5 5 5 5 5 5 5 5 5 5 5 5 5 5 5 5 5 5 5 5 5 5 5 5 5 5 5 5 5 5 5 5 5 5 5 5 5 5 5 5 5 5 5 5 5 5 5 5 5 5 5 5 5 5 5 5 5 5 5 5 5 5 5 5 5 5 5 5 5 5 5 5 5 5 5 5 5 5 5 5 5 5 5 5 5 5 5 5 5 5 5 5 5 5 5 5 5 5 5 5 5 5 5 5 5 5 5 5 5 5 5 5 5 5 5 5 5 5 5 5 5 5 5 5 5 5 5 5 5 5 5 5 5 5 5 5 5 5 5 5 5 5 5 5 5 5 5 5 5 5 5 5 5 5 5 5 5 5 5 5 5 5 5 5 5 5 5 5 5 5 5 5 5 5 5 5 5 5 5 5 5 5 5 5 5 5 5 5 5 5 5 5 5 5 5 5 5 </DataArray>
</Cells>
<PointData  Vectors="Displacement"> 
<DataArray  type="Float64"  Name="Displacement"  NumberOfComponents="3" format="ascii">4.2612362622626647e-04 1.7424880272281731e-04 0.0000000000000000e+00  4.7178611773668463e-04 6.8871598198144487e-05 0.0000000000000000e+00  4.8414523401516121e-04 1.1614629681660577e-04 0.0000000000000000e+00  4.7460617080412933e-04 1.5051444959395040e-04 0.0000000000000000e+00  4.6185222857389674e-04 1.7475992049589004e-04 0.0000000000000000e+00  4.5005497034831220e-04 1.9172969150120029e-04 0.0000000000000000e+00  4.3878663272843940e-04 2.0703904401135867e-04 0.0000000000000000e+00  4.2834709130348510e-04 2.1681833399610952e-04 0.0000000000000000e+00  4.1714514492596582e-04 2.1999497553331862e-04 0.0000000000000000e+00  4.0896876916016238e-04 2.1896911746198259e-04 0.0000000000000000e+00  4.0147067316222536e-04 2.1530160316327499e-04 0.0000000000000000e+00  3.9690349465583663e-04 2.0993796130724059e-04 0.0000000000000000e+00  3.9205554834254117e-04 2.0386852581575523e-04 0.0000000000000000e+00  3.8611118933984297e-04 1.9824671587181743e-04 0.0000000000000000e+00  3.8091465680394510e-04 1.8836608528015434e-04 0.0000000000000000e+00  3.7993899498801968e-04 1.8066298689930446e-04 0.0000000000000000e+00  3.7573522947813005e-04 1.7068155669967906e-04 0.0000000000000000e+00  3.7248817821060884e-04 1.6289290665764342e-04 0.0000000000000000e+00  3.7184013244569364e-04 1.5374723181009055e-04 0.0000000000000000e+00  3.7420505704441738e-04 1.4978735798606342e-04 0.0000000000000000e+00  3.7522696122489378e-04 1.4847815424548356e-04 0.0000000000000000e+00  3.7972307938843186e-04 1.4504680982250920e-04 0.0000000000000000e+00  3.8109541876122743e-04 1.4546245107499003e-04 0.0000000000000000e+00  3.8123353923784413e-04 1.4463509973483646e-04 0.0000000000000000e+00  3.8179448380430280e-04 1.5069439891672931e-04 0.0000000000000000e+00  3.8636164242286832e-04 1.4993382190312622e-04 0.0000000000000000e+00  4.0559370532016576e-04 2.0959409191732329e-04 0.0000000000000000e+00  4.6776474594683497e-04 7.3855977122164963e-05 0.0000000000000000e+00  4.6853782494160942e-04 7.5273523419550360e-05 0.0000000000000000e+00  4.5714653166640721e-04 1.1711111215446749e-04 0.0000000000000000e+00  4.4997256885186804e-04 1.5373266692097901e-04 0.0000000000000000e+00  4.4255856498163934e-04 1.7877614171408113e-04 0.0000000000000000e+00  4.3585788603558469e-04 1.9619791798134801e-04 0.0000000000000000e+00  4.2758279788111217e-04 2.1221779892619232e-04 0.0000000000000000e+00  4.2043538635617311e-04 2.2146735255572798e-04 0.0000000000000000e+00  4.1404449445835980e-04 2.2464114495097492e-04 0.0000000000000000e+00  4.0871570451136410e-04 2.2263517919228240e-04 0.0000000000000000e+00  4.0409564793642981e-04 2.1899328245159939e-04 0.0000000000000000e+00  3.9950935011292632e-04 2.1166358294059766e-04 0.0000000000000000e+00  3.9695783393928972e-04 2.0747967196345544e-04 0.0000000000000000e+00  3.9241005958077271e-04 2.0193317537358990e-04 0.0000000000000000e+00  3.8858746766014745e-04 1.9039234620977575e-04 0.0000000000000000e+00  3.8645216983129157e-04 1.8173863670506796e-04 0.0000000000000000e+00  3.8258192485317636e-04 1.7423371741504028e-04 0.0000000000000000e+00  3.8060023336457190e-04 1.6385301205626190e-04 0.0000000000000000e+00  3.7964948014729375e-04 1.5440809834516532e-04 0.0000000000000000e+00  3.7741337228811521e-04 1.5051735079648409e-04 0.0000000000000000e+00  3.7860806402081518e-04 1.4643353748009964e-04 0.0000000000000000e+00  3.8118738276037608e-04 1.4331798392384627e-04 0.0000000000000000e+00  3.8411118137817400e-04 1.4484557082983793e-04 0.0000000000000000e+00  3.8158798781210551e-04 1.4709903853830718e-04 0.0000000000000000e+00  3.7860055389016674e-04 1.5101327744503941e-04 0.0000000000000000e+00  3.7550875179033261e-04 1.5844187255413124e-04 0.0000000000000000e+00  3.7591222945484065e-04 1.7931412136009537e-04 0.0000000000000000e+00  4.3755553240153996e-04 3.2028724380706594e-05 0.0000000000000000e+00  4.4434040904725786e-04 7.9799529483150209e-05 0.0000000000000000e+00  4.3350311440494457e-04 1.2304480585920884e-04 0.0000000000000000e+00  4.2593123842840327e-04 1.5730831449384098e-04 0.0000000000000000e+00  4.2213559944419824e-04 1.8062254988111446e-04 0.0000000000000000e+00  4.2026198406619231e-04 1.9877845139505877e-04 0.0000000000000000e+00  4.1633270852091815e-04 2.1526461678410234e-04 0.0000000000000000e+00  4.1257419724381663e-04 2.2409854327464177e-04 0.0000000000000000e+00  4.0912317783476331e-04 2.2734049368768012e-04 0.0000000000000000e+00  4.0624120494525397e-04 2.2463007124124004e-04 0.0000000000000000e+00  4.0535674148388482e-04 2.1952983644981389e-04 0.0000000000000000e+00  4.0264418481057094e-04 2.1407719505089266e-04 0.0000000000000000e+00  4.0066393849047690e-04 2.1035843726621958e-04 0.0000000000000000e+00  3.9747952288340325e-04 2.0319652496264209e-04 0.0000000000000000e+00  3.9487064513631277e-04 1.9274205863187752e-04 0.0000000000000000e+00  3.9127304864425126e-04 1.8289208524601618e-04 0.0000000000000000e+00  3.8990477988218363e-04 1.7536218814729544e-04 0.0000000000000000e+00  3.8777927948015450e-04 1.6397009372019295e-04 0.0000000000000000e+00  3.8520411640469442e-04 1.5576293162822367e-04 0.0000000000000000e+00  3.8141493835671986e-04 1.5133782833232033e-04 0.0000000000000000e+00  3.8024298858902822e-04 1.4553732035336994e-04 0.0000000000000000e+00  3.8147374277722217e-04 1.4073415780471954e-04 0.0000000000000000e+00  3.8331209071228590e-04 1.4447434363173479e-04 0.0000000000000000e+00  3.8151183573291680e-04 1.5051970097356644e-04 0.0000000000000000e+00  3.7784254331818420e-04 1.5459410708610824e-04 0.0000000000000000e+00  3.7451375751280122e-04 1.6115894776367720e-04 0.0000000000000000e+00  3.7627622766738038e-04 1.6825480829202273e-04 0.0000000000000000e+00  3.9381777155150717e-04 -5.9980682559743208e-06 0.0000000000000000e+00  4.0289200375241360e-04 7.8637637418095275e-05 0.0000000000000000e+00  3.9981999237326228e-04 1.2833446931493603e-04 0.0000000000000000e+00  4.0071192289147287e-04 1.5883860209130518e-04 0.0000000000000000e+00  4.0237981552285955e-04 1.7960473353646788e-04 0.0000000000000000e+00  4.0357493597835544e-04 1.9946861553661756e-04 0.0000000000000000e+00  4.0438868368215965e-04 2.1645032583924044e-04 0.0000000000000000e+00  4.0510481056325301e-04 2.2480715458991643e-04 0.0000000000000000e+00  4.0473833621321116e-04 2.2745859079259924e-04 0.0000000000000000e+00  4.0627307818738914e-04 2.2390947910651789e-04 0.0000000000000000e+00  4.0558893855138886e-04 2.1975232205299127e-04 0.0000000000000000e+00  4.0451605343967266e-04 2.1491023772567911e-04 0.0000000000000000e+00  4.0423037556454468e-04 2.1141877215409782e-04 0.0000000000000000e+00  4.0375568380622925e-04 2.0495027518032047e-04 0.0000000000000000e+00  4.0088748503649540e-04 1.9545086195370769e-04 0.0000000000000000e+00  3.9862258322522078e-04 1.8424052889464784e-04 0.0000000000000000e+00  3.9684847018512677e-04 1.7669539686806634e-04 0.0000000000000000e+00  3.9172534466085329e-04 1.6575983371361959e-04 0.0000000000000000e+00  3.8776899325177773e-04 1.5688335319380270e-04 0.0000000000000000e+00  3.8511828192892481e-04 1.5231010863077008e-04 0.0000000000000000e+00  3.8412197415385905e-04 1.4468427783080346e-04 0.0000000000000000e+00  3.8258173201662343e-04 1.3932579179253858e-04 0.0000000000000000e+00  3.8278165237512013e-04 1.4503523060221070e-04 0.0000000000000000e+00  3.8055261821637787e-04 1.5168618771832043e-04 0.0000000000000000e+00  3.7898356164469478e-04 1.5743780216886374e-04 0.0000000000000000e+00  3.7724164505974781e-04 1.6085680027521425e-04 0.0000000000000000e+00  3.7918230038933129e-04 1.6483308860168268e-04 0.0000000000000000e+00  2.7750276203395498e-04 -1.0227292055695168e-04 0.0000000000000000e+00  3.3864311679329098e-04 7.5203246603193613e-05 0.0000000000000000e+00  3.6416256074014747e-04 1.2475465305640716e-04 0.0000000000000000e+00  3.7668023414182952e-04 1.5577142424432619e-04 0.0000000000000000e+00  3.8289653563832187e-04 1.7644899234116137e-04 0.0000000000000000e+00  3.8852840664269577e-04 1.9836170524661388e-04 0.0000000000000000e+00  3.9329296843777100e-04 2.1452061536067859e-04 0.0000000000000000e+00  3.9836176247941144e-04 2.2291894790758100e-04 0.0000000000000000e+00  4.0383169881487858e-04 2.2540558759013473e-04 0.0000000000000000e+00  4.0707400846925671e-04 2.2235449550020713e-04 0.0000000000000000e+00  4.0737423900994232e-04 2.2000386217144557e-04 0.0000000000000000e+00  4.0669404376934468e-04 2.1435556388433728e-04 0.0000000000000000e+00  4.0766995447319920e-04 2.1066791392941324e-04 0.0000000000000000e+00  4.0861171515687976e-04 2.0512941251966886e-04 0.0000000000000000e+00  4.0860117798416416e-04 1.9611720338025228e-04 0.0000000000000000e+00  4.0672943002545593e-04 1.8466608603594285e-04 0.0000000000000000e+00  4.0231353612577811e-04 1.7848345510373880e-04 0.0000000000000000e+00  3.9801449580635249e-04 1.6874105206489412e-04 0.0000000000000000e+00  3.9151900707002534e-04 1.5741264798564401e-04 0.0000000000000000e+00  3.8947527608563452e-04 1.5257314536166414e-04 0.0000000000000000e+00  3.8821924503928756e-04 1.4463300487131298e-04 0.0000000000000000e+00  3.8467728886159815e-04 1.4019993199511005e-04 0.0000000000000000e+00  3.7922523152890045e-04 1.4658801570559060e-04 0.0000000000000000e+00  3.7644186016730271e-04 1.5204089810056111e-04 0.0000000000000000e+00  3.7720505249885539e-04 1.5810086922292112e-04 0.0000000000000000e+00  3.7682863436616946e-04 1.6039948417706420e-04 0.0000000000000000e+00  3.7881749338361065e-04 1.6266873636456270e-04 0.0000000000000000e+00  </DataArray> 
</PointData> 
</Piece>
</UnstructuredGrid>
</VTKFile>