<?xml version="1.0"?>
<VTKFile type="UnstructuredGrid"  version="0.1"  >
<UnstructuredGrid>
<Piece  NumberOfPoints="135" NumberOfCells="208">
<Points>
<DataArray  type="Float64"  NumberOfComponents="3"  format="ascii">1 1 0  1.076923076923077 1 0  1.153846153846154 1 0  1.230769230769231 1 0  1.307692307692308 1 0  1.384615384615385 1 0  1.461538461538462 1 0  1.538461538461538 1 0  1.615384615384615 1 0  1.692307692307692 1 0  1.769230769230769 1 0  1.846153846153846 1 0  1.923076923076923 1 0  2 1 0  2.076923076923077 1 0  2.153846153846154 1 0  2.230769230769231 1 0  2.307692307692307 1 0  2.384615384615385 1 0  2.461538461538462 1 0  2.538461538461538 1 0  2.615384615384615 1 0  2.692307692307693 1 0  2.769230769230769 1 0  2.846153846153846 1 0  2.923076923076923 1 0  3 1 0  1 1.0625 0  1.076923076923077 1.0625 0  1.153846153846154 1.0625 0  1.230769230769231 1.0625 0  1.307692307692308 1.0625 0  1.384615384615385 1.0625 0  1.461538461538462 1.0625 0  1.538461538461538 1.0625 0  1.615384615384615 1.0625 0  1.692307692307692 1.0625 0  1.769230769230769 1.0625 0  1.846153846153846 1.0625 0  1.923076923076923 1.0625 0  2 1.0625 0  2.076923076923077 1.0625 0  2.153846153846154 1.0625 0  2.230769230769231 1.0625 0  2.307692307692307 1.0625 0  2.384615384615385 1.0625 0  2.461538461538462 1.0625 0  2.538461538461538 1.0625 0  2.615384615384615 1.0625 0  2.692307692307693 1.0625 0  2.769230769230769 1.0625 0  2.846153846153846 1.0625 0  2.923076923076923 1.0625 0  3 1.0625 0  1 1.125 0  1.076923076923077 1.125 0  1.153846153846154 1.125 0  1.230769230769231 1.125 0  1.307692307692308 1.125 0  1.384615384615385 1.125 0  1.461538461538462 1.125 0  1.538461538461538 1.125 0  1.615384615384615 1.125 0  1.692307692307692 1.125 0  1.769230769230769 1.125 0  1.846153846153846 1.125 0  1.923076923076923 1.125 0  2 1.125 0  2.076923076923077 1.125 0  2.153846153846154 1.125 0  2.230769230769231 1.125 0  2.307692307692307 1.125 0  2.384615384615385 1.125 0  2.461538461538462 1.125 0  2.538461538461538 1.125 0  2.615384615384615 1.125 0  2.692307692307693 1.125 0  2.769230769230769 1.125 0  2.846153846153846 1.125 0  2.923076923076923 1.125 0  3 1.125 0  1 1.1875 0  1.076923076923077 1.1875 0  1.153846153846154 1.1875 0  1.230769230769231 1.1875 0  1.307692307692308 1.1875 0  1.384615384615385 1.1875 0  1.461538461538462 1.1875 0  1.538461538461538 1.1875 0  1.615384615384615 1.1875 0  1.692307692307692 1.1875 0  1.769230769230769 1.1875 0  1.846153846153846 1.1875 0  1.923076923076923 1.1875 0  2 1.1875 0  2.076923076923077 1.1875 0  2.153846153846154 1.1875 0  2.230769230769231 1.1875 0  2.307692307692307 1.1875 0  2.384615384615385 1.1875 0  2.461538461538462 1.1875 0  2.538461538461538 1.1875 0  2.615384615384615 1.1875 0  2.692307692307693 1.1875 0  2.769230769230769 1.1875 0  2.846153846153846 1.1875 0  2.923076923076923 1.1875 0  3 1.1875 0  1 1.25 0  1.076923076923077 1.25 0  1.153846153846154 1.25 0  1.230769230769231 1.25 0  1.307692307692308 1.25 0  1.384615384615385 1.25 0  1.461538461538462 1.25 0  1.538461538461538 1.25 0  1.615384615384615 1.25 0  1.692307692307692 1.25 0  1.769230769230769 1.25 0  1.846153846153846 1.25 0  1.923076923076923 1.25 0  2 1.25 0  2.076923076923077 1.25 0  2.153846153846154 1.25 0  2.230769230769231 1.25 0  2.307692307692307 1.25 0  2.384615384615385 1.25 0  2.461538461538462 1.25 0  2.538461538461538 1.25 0  2.615384615384615 1.25 0  2.692307692307693 1.25 0  2.769230769230769 1.25 0  2.846153846153846 1.25 0  2.923076923076923 1.25 0  3 1.25 0  </DataArray>
</Points>
<Cells>
<DataArray  type="UInt32"  Name="connectivity"  format="ascii">0 1 28  0 27 28  1 2 29  1 28 29  2 3 30  2 29 30  3 4 31  3 30 31  4 5 32  4 31 32  5 6 33  5 32 33  6 7 34  6 33 34  7 8 35  7 34 35  8 9 36  8 35 36  9 10 37  9 36 37  10 11 38  10 37 38  11 12 39  11 38 39  12 13 40  12 39 40  13 14 41  13 40 41  14 15 42  14 41 42  15 16 43  15 42 43  16 17 44  16 43 44  17 18 45  17 44 45  18 19 46  18 45 46  19 20 47  19 46 47  20 21 48  20 47 48  21 22 49  21 48 49  22 23 50  22 49 50  23 24 51  23 50 51  24 25 52  24 51 52  25 26 53  25 52 53  27 28 55  27 54 55  28 29 56  28 55 56  29 30 57  29 56 57  30 31 58  30 57 58  31 32 59  31 58 59  32 33 60  32 59 60  33 34 61  33 60 61  34 35 62  34 61 62  35 36 63  35 62 63  36 37 64  36 63 64  37 38 65  37 64 65  38 39 66  38 65 66  39 40 67  39 66 67  40 41 68  40 67 68  41 42 69  41 68 69  42 43 70  42 69 70  43 44 71  43 70 71  44 45 72  44 71 72  45 46 73  45 72 73  46 47 74  46 73 74  47 48 75  47 74 75  48 49 76  48 75 76  49 50 77  49 76 77  50 51 78  50 77 78  51 52 79  51 78 79  52 53 80  52 79 80  54 55 82  54 81 82  55 56 83  55 82 83  56 57 84  56 83 84  57 58 85  57 84 85  58 59 86  58 85 86  59 60 87  59 86 87  60 61 88  60 87 88  61 62 89  61 88 89  62 63 90  62 89 90  63 64 91  63 90 91  64 65 92  64 91 92  65 66 93  65 92 93  66 67 94  66 93 94  67 68 95  67 94 95  68 69 96  68 95 96  69 70 97  69 96 97  70 71 98  70 97 98  71 72 99  71 98 99  72 73 100  72 99 100  73 74 101  73 100 101  74 75 102  74 101 102  75 76 103  75 102 103  76 77 104  76 103 104  77 78 105  77 104 105  78 79 106  78 105 106  79 80 107  79 106 107  81 82 109  81 108 109  82 83 110  82 109 110  83 84 111  83 110 111  84 85 112  84 111 112  85 86 113  85 112 113  86 87 114  86 113 114  87 88 115  87 114 115  88 89 116  88 115 116  89 90 117  89 116 117  90 91 118  90 117 118  91 92 119  91 118 119  92 93 120  92 119 120  93 94 121  93 120 121  94 95 122  94 121 122  95 96 123  95 122 123  96 97 124  96 123 124  97 98 125  97 124 125  98 99 126  98 125 126  99 100 127  99 126 127  100 101 128  100 127 128  101 102 129  101 128 129  102 103 130  102 129 130  103 104 131  103 130 131  104 105 132  104 131 132  105 106 133  105 132 133  106 107 134  106 133 134  </DataArray>
<DataArray  type="UInt32"  Name="offsets"  format="ascii">3 6 9 12 15 18 21 24 27 30 33 36 39 42 45 48 51 54 57 60 63 66 69 72 75 78 81 84 87 90 93 96 99 102 105 108 111 114 117 120 123 126 129 132 135 138 141 144 147 150 153 156 159 162 165 168 171 174 177 180 183 186 189 192 195 198 201 204 207 210 213 216 219 222 225 228 231 234 237 240 243 246 249 252 255 258 261 264 267 270 273 276 279 282 285 288 291 294 297 300 303 306 309 312 315 318 321 324 327 330 333 336 339 342 345 348 351 354 357 360 363 366 369 372 375 378 381 384 387 390 393 396 399 402 405 408 411 414 417 420 423 426 429 432 435 438 441 444 447 450 453 456 459 462 465 468 471 474 477 480 483 486 489 492 495 498 501 504 507 510 513 516 519 522 525 528 531 534 537 540 543 546 549 552 555 558 561 564 567 570 573 576 579 582 585 588 591 594 597 600 603 606 609 612 615 618 621 624 </DataArray>
<DataArray  type="UInt8"  Name="types"  format="ascii">5 5 5 5 5 5 5 5 5 5 5 5 5 5 5 5 5 5 5 5 5 5 5 5 5 5 5 5 5 5 5 5 5 5 5 5 5 5 5 5 5 5 5 5 5 5 5 5 5 5 5 5 5 5 5 5 5 5 5 5 5 5 5 5 5 5 5 5 5 5 5 5 5 5 5 5 5 5 5 5 5 5 5 5 5 5 5 5 5 5 5 5 5 5 5 5 5 5 5 5 5 5 5 5 5 5 5 5 5 5 5 5 5 5 5 5 5 5 5 5 5 5 5 5 5 5 5 5 5 5 5 5 5 5 5 5 5 5 5 5 5 5 5 5 5 5 5 5 5 5 5 5 5 5 5 5 5 5 5 5 5 5 5 5 5 5 5 5 5 5 5 5 5 5 5 5 5 5 5 5 5 5 5 5 5 5 5 5 5 5 5 5 5 5 5 5 5 5 5 5 5 5 5 5 5 5 5 5 </DataArray>
</Cells>
<PointData  Vectors="Displacement"> 
<DataArray  type="Float64"  Name="Displacement"  NumberOfComponents="3" format="ascii">2.7312717937550936e-04 1.8903247451505301e-04 0.0000000000000000e+00  3.2252499083937103e-04 7.2110329773710603e-05 0.0000000000000000e+00  3.3659204771711377e-04 1.0692078946025054e-04 0.0000000000000000e+00  3.2824894763079730e-04 1.3143198323603252e-04 0.0000000000000000e+00  3.1551988759567025e-04 1.5259450778870424e-04 0.0000000000000000e+00  3.0169209449686991e-04 1.6660492620118738e-04 0.0000000000000000e+00  2.9168783241952036e-04 1.7559353417750869e-04 0.0000000000000000e+00  2.7985057394499494e-04 1.8520494468963843e-04 0.0000000000000000e+00  2.6911989940581080e-04 1.9074874424888864e-04 0.0000000000000000e+00  2.6083333163307075e-04 1.8939333289146225e-04 0.0000000000000000e+00  2.5333717703385981e-04 1.8332535054149717e-04 0.0000000000000000e+00  2.4916231077356225e-04 1.7684609675323534e-04 0.0000000000000000e+00  2.4603528786997094e-04 1.7021868030083398e-04 0.0000000000000000e+00  2.4250941667427618e-04 1.5949218347605568e-04 0.0000000000000000e+00  2.4117369575226650e-04 1.4946628038667810e-04 0.0000000000000000e+00  2.4185918790314704e-04 1.4307352269095992e-04 0.0000000000000000e+00  2.4179636808280161e-04 1.3656204456649008e-04 0.0000000000000000e+00  2.4110654652349439e-04 1.3068790636714962e-04 0.0000000000000000e+00  2.3931431404028178e-04 1.2281547512403484e-04 0.0000000000000000e+00  2.3696394676403723e-04 1.1525072222652669e-04 0.0000000000000000e+00  2.3236225860351415e-04 1.0325075214008390e-04 0.0000000000000000e+00  2.3533957585544053e-04 1.0327554261537833e-04 0.0000000000000000e+00  2.3629227755723461e-04 1.0351179058116181e-04 0.0000000000000000e+00  2.3971925507600865e-04 1.0484102421465142e-04 0.0000000000000000e+00  2.4185296553901417e-04 1.1113808164422155e-04 0.0000000000000000e+00  2.5285390097321312e-04 1.0707161252374382e-04 0.0000000000000000e+00  2.7132963967034377e-04 1.6145449845323792e-04 0.0000000000000000e+00  3.2924123382117171e-04 8.9681838265598791e-05 0.0000000000000000e+00  3.2795165635871726e-04 7.6798082280477888e-05 0.0000000000000000e+00  3.1685065998466130e-04 1.0708137939353707e-04 0.0000000000000000e+00  3.0745640754903213e-04 1.3535608977123130e-04 0.0000000000000000e+00  2.9853820266183755e-04 1.5677507226396440e-04 0.0000000000000000e+00  2.8989513853098196e-04 1.7154859959410217e-04 0.0000000000000000e+00  2.8007716180416208e-04 1.8071768391110000e-04 0.0000000000000000e+00  2.7247877584887081e-04 1.9037903149929201e-04 0.0000000000000000e+00  2.6783188969052601e-04 1.9508709175454440e-04 0.0000000000000000e+00  2.6174315854701822e-04 1.9375546353409424e-04 0.0000000000000000e+00  2.5722861267484193e-04 1.8641940671292395e-04 0.0000000000000000e+00  2.5391998297145078e-04 1.7838802859076542e-04 0.0000000000000000e+00  2.5235336344609963e-04 1.7155062465769620e-04 0.0000000000000000e+00  2.5108736175923963e-04 1.6117867364115086e-04 0.0000000000000000e+00  2.4999405057815778e-04 1.5020023415859905e-04 0.0000000000000000e+00  2.4945101550443566e-04 1.4250031689901191e-04 0.0000000000000000e+00  2.4883125459093029e-04 1.3618700519675979e-04 0.0000000000000000e+00  2.4781885826201595e-04 1.3146717324032364e-04 0.0000000000000000e+00  2.4661664952468231e-04 1.2428671698513617e-04 0.0000000000000000e+00  2.4498264425201440e-04 1.1780852524252942e-04 0.0000000000000000e+00  2.4020289136279799e-04 1.0670395451059026e-04 0.0000000000000000e+00  2.3821859978423321e-04 1.0225312618173685e-04 0.0000000000000000e+00  2.4102469051823737e-04 1.0272709750185088e-04 0.0000000000000000e+00  2.3986416186171761e-04 1.0674151179144610e-04 0.0000000000000000e+00  2.4214898104750907e-04 1.0773134333598132e-04 0.0000000000000000e+00  2.4520171126301844e-04 1.1249926165866020e-04 0.0000000000000000e+00  2.4721078079285137e-04 1.3832167324575733e-04 0.0000000000000000e+00  3.0591858577649249e-04 4.5928544747784870e-05 0.0000000000000000e+00  3.1233186150574245e-04 8.2248291531981027e-05 0.0000000000000000e+00  2.9953620181118385e-04 1.1217931916292762e-04 0.0000000000000000e+00  2.8956920522878789e-04 1.4147061432503625e-04 0.0000000000000000e+00  2.8194107140157082e-04 1.6074262671063110e-04 0.0000000000000000e+00  2.7577071918240910e-04 1.7495783039822484e-04 0.0000000000000000e+00  2.6960331270290094e-04 1.8560749034285656e-04 0.0000000000000000e+00  2.6535580347294675e-04 1.9253339097163028e-04 0.0000000000000000e+00  2.6387695046001670e-04 1.9629106396221562e-04 0.0000000000000000e+00  2.6109678194573510e-04 1.9534079110728386e-04 0.0000000000000000e+00  2.5992587868354361e-04 1.8842983812578074e-04 0.0000000000000000e+00  2.5683016868042742e-04 1.7916789555412236e-04 0.0000000000000000e+00  2.5754517309335869e-04 1.7150982993147782e-04 0.0000000000000000e+00  2.5754118847603287e-04 1.6153368487503665e-04 0.0000000000000000e+00  2.5664736883154602e-04 1.5102924063630966e-04 0.0000000000000000e+00  2.5452396987586662e-04 1.4212746263839250e-04 0.0000000000000000e+00  2.5511734776418362e-04 1.3652088715131796e-04 0.0000000000000000e+00  2.5513864837602900e-04 1.3125815665234321e-04 0.0000000000000000e+00  2.5386143286683729e-04 1.2647238555015778e-04 0.0000000000000000e+00  2.4875904690848126e-04 1.1976397420521587e-04 0.0000000000000000e+00  2.4390003218997605e-04 1.0918191597343611e-04 0.0000000000000000e+00  2.4221239385930219e-04 9.9903775606327612e-05 0.0000000000000000e+00  2.4166125482865492e-04 1.0202412822757244e-04 0.0000000000000000e+00  2.4083186701839618e-04 1.0648081823470487e-04 0.0000000000000000e+00  2.4163746866333061e-04 1.0506720062433415e-04 0.0000000000000000e+00  2.3936787019416511e-04 1.1407428739050029e-04 0.0000000000000000e+00  2.3958281564674368e-04 1.3049935231136586e-04 0.0000000000000000e+00  2.6827684671456827e-04 6.3663589134493748e-06 0.0000000000000000e+00  2.7862062499164127e-04 8.0526583243044025e-05 0.0000000000000000e+00  2.7297888016179506e-04 1.1976379163930310e-04 0.0000000000000000e+00  2.6846622019920379e-04 1.4572971253840885e-04 0.0000000000000000e+00  2.6532072245822160e-04 1.6550367777723430e-04 0.0000000000000000e+00  2.6234255018117058e-04 1.7809240944445379e-04 0.0000000000000000e+00  2.6045041483206964e-04 1.8911084723632302e-04 0.0000000000000000e+00  2.5920635109712056e-04 1.9417491624670983e-04 0.0000000000000000e+00  2.6031871534828332e-04 1.9723801788283662e-04 0.0000000000000000e+00  2.6152813205629577e-04 1.9672789691674086e-04 0.0000000000000000e+00  2.6212576026606044e-04 1.9051093811859842e-04 0.0000000000000000e+00  2.6275275052755237e-04 1.8099251686250651e-04 0.0000000000000000e+00  2.6269665743846454e-04 1.7054112604791209e-04 0.0000000000000000e+00  2.6320762321062677e-04 1.6311457695720490e-04 0.0000000000000000e+00  2.6237646951023737e-04 1.5253819981390511e-04 0.0000000000000000e+00  2.6129954187677353e-04 1.4393083380209390e-04 0.0000000000000000e+00  2.6011675479444858e-04 1.3668443890728528e-04 0.0000000000000000e+00  2.5984067920924609e-04 1.3304583541132634e-04 0.0000000000000000e+00  2.5881767700991568e-04 1.2970738372193336e-04 0.0000000000000000e+00  2.5569244670088192e-04 1.2477443535242281e-04 0.0000000000000000e+00  2.5090756605346785e-04 1.1228032828164829e-04 0.0000000000000000e+00  2.4516255540574759e-04 1.0211350665398006e-04 0.0000000000000000e+00  2.4183804256635818e-04 1.0279601465422789e-04 0.0000000000000000e+00  2.4093573401293245e-04 1.0520236840600359e-04 0.0000000000000000e+00  2.4057921386542294e-04 1.0602413913009248e-04 0.0000000000000000e+00  2.3758012044742120e-04 1.1606433335804256e-04 0.0000000000000000e+00  2.3648314147620616e-04 1.2964542680473292e-04 0.0000000000000000e+00  1.6488872987474519e-04 -8.6792634319172117e-05 0.0000000000000000e+00  2.2107076405607996e-04 7.8151514374086650e-05 0.0000000000000000e+00  2.4128814515504064e-04 1.1956941963063138e-04 0.0000000000000000e+00  2.4670684652465757e-04 1.4564581073181419e-04 0.0000000000000000e+00  2.4977016556461759e-04 1.6666366878908528e-04 0.0000000000000000e+00  2.5129260248809773e-04 1.7858670607977104e-04 0.0000000000000000e+00  2.5282813861975220e-04 1.8874880391509755e-04 0.0000000000000000e+00  2.5535013247384922e-04 1.9372752256827312e-04 0.0000000000000000e+00  2.5846690822533592e-04 1.9512425885903040e-04 0.0000000000000000e+00  2.6308534587539265e-04 1.9482881738280215e-04 0.0000000000000000e+00  2.6823566084269683e-04 1.8958167601744401e-04 0.0000000000000000e+00  2.6915437952032052e-04 1.8029758672458046e-04 0.0000000000000000e+00  2.6941585550074697e-04 1.7068165020578502e-04 0.0000000000000000e+00  2.6997360488412029e-04 1.6329647135199864e-04 0.0000000000000000e+00  2.6969439051172220e-04 1.5297549670427105e-04 0.0000000000000000e+00  2.6770488609739127e-04 1.4520488112521529e-04 0.0000000000000000e+00  2.6539827088462102e-04 1.3799505815371169e-04 0.0000000000000000e+00  2.6271092900086916e-04 1.3313568209655851e-04 0.0000000000000000e+00  2.6105914129699343e-04 1.2934841412388598e-04 0.0000000000000000e+00  2.6165175852935511e-04 1.2627506190239352e-04 0.0000000000000000e+00  2.5937266297881238e-04 1.1453107861550265e-04 0.0000000000000000e+00  2.5113835024711401e-04 1.0616390645503632e-04 0.0000000000000000e+00  2.4247390158944998e-04 1.0458379261277238e-04 0.0000000000000000e+00  2.3848197349170860e-04 1.0574479093619494e-04 0.0000000000000000e+00  2.3411202207788208e-04 1.0755248934550061e-04 0.0000000000000000e+00  2.2926596764988633e-04 1.1738396814922545e-04 0.0000000000000000e+00  2.2912405198162220e-04 1.2993065759685929e-04 0.0000000000000000e+00  </DataArray> 
</PointData> 
</Piece>
</UnstructuredGrid>
</VTKFile>