<?xml version="1.0"?>
<VTKFile type="UnstructuredGrid"  version="0.1"  >
<UnstructuredGrid>
<Piece  NumberOfPoints="135" NumberOfCells="208">
<Points>
<DataArray  type="Float64"  NumberOfComponents="3"  format="ascii">1 1 0  1.076923076923077 1 0  1.153846153846154 1 0  1.230769230769231 1 0  1.307692307692308 1 0  1.384615384615385 1 0  1.461538461538462 1 0  1.538461538461538 1 0  1.615384615384615 1 0  1.692307692307692 1 0  1.769230769230769 1 0  1.846153846153846 1 0  1.923076923076923 1 0  2 1 0  2.076923076923077 1 0  2.153846153846154 1 0  2.230769230769231 1 0  2.307692307692307 1 0  2.384615384615385 1 0  2.461538461538462 1 0  2.538461538461538 1 0  2.615384615384615 1 0  2.692307692307693 1 0  2.769230769230769 1 0  2.846153846153846 1 0  2.923076923076923 1 0  3 1 0  1 1.0625 0  1.076923076923077 1.0625 0  1.153846153846154 1.0625 0  1.230769230769231 1.0625 0  1.307692307692308 1.0625 0  1.384615384615385 1.0625 0  1.461538461538462 1.0625 0  1.538461538461538 1.0625 0  1.615384615384615 1.0625 0  1.692307692307692 1.0625 0  1.769230769230769 1.0625 0  1.846153846153846 1.0625 0  1.923076923076923 1.0625 0  2 1.0625 0  2.076923076923077 1.0625 0  2.153846153846154 1.0625 0  2.230769230769231 1.0625 0  2.307692307692307 1.0625 0  2.384615384615385 1.0625 0  2.461538461538462 1.0625 0  2.538461538461538 1.0625 0  2.615384615384615 1.0625 0  2.692307692307693 1.0625 0  2.769230769230769 1.0625 0  2.846153846153846 1.0625 0  2.923076923076923 1.0625 0  3 1.0625 0  1 1.125 0  1.076923076923077 1.125 0  1.153846153846154 1.125 0  1.230769230769231 1.125 0  1.307692307692308 1.125 0  1.384615384615385 1.125 0  1.461538461538462 1.125 0  1.538461538461538 1.125 0  1.615384615384615 1.125 0  1.692307692307692 1.125 0  1.769230769230769 1.125 0  1.846153846153846 1.125 0  1.923076923076923 1.125 0  2 1.125 0  2.076923076923077 1.125 0  2.153846153846154 1.125 0  2.230769230769231 1.125 0  2.307692307692307 1.125 0  2.384615384615385 1.125 0  2.461538461538462 1.125 0  2.538461538461538 1.125 0  2.615384615384615 1.125 0  2.692307692307693 1.125 0  2.769230769230769 1.125 0  2.846153846153846 1.125 0  2.923076923076923 1.125 0  3 1.125 0  1 1.1875 0  1.076923076923077 1.1875 0  1.153846153846154 1.1875 0  1.230769230769231 1.1875 0  1.307692307692308 1.1875 0  1.384615384615385 1.1875 0  1.461538461538462 1.1875 0  1.538461538461538 1.1875 0  1.615384615384615 1.1875 0  1.692307692307692 1.1875 0  1.769230769230769 1.1875 0  1.846153846153846 1.1875 0  1.923076923076923 1.1875 0  2 1.1875 0  2.076923076923077 1.1875 0  2.153846153846154 1.1875 0  2.230769230769231 1.1875 0  2.307692307692307 1.1875 0  2.384615384615385 1.1875 0  2.461538461538462 1.1875 0  2.538461538461538 1.1875 0  2.615384615384615 1.1875 0  2.692307692307693 1.1875 0  2.769230769230769 1.1875 0  2.846153846153846 1.1875 0  2.923076923076923 1.1875 0  3 1.1875 0  1 1.25 0  1.076923076923077 1.25 0  1.153846153846154 1.25 0  1.230769230769231 1.25 0  1.307692307692308 1.25 0  1.384615384615385 1.25 0  1.461538461538462 1.25 0  1.538461538461538 1.25 0  1.615384615384615 1.25 0  1.692307692307692 1.25 0  1.769230769230769 1.25 0  1.846153846153846 1.25 0  1.923076923076923 1.25 0  2 1.25 0  2.076923076923077 1.25 0  2.153846153846154 1.25 0  2.230769230769231 1.25 0  2.307692307692307 1.25 0  2.384615384615385 1.25 0  2.461538461538462 1.25 0  2.538461538461538 1.25 0  2.615384615384615 1.25 0  2.692307692307693 1.25 0  2.769230769230769 1.25 0  2.846153846153846 1.25 0  2.923076923076923 1.25 0  3 1.25 0  </DataArray>
</Points>
<Cells>
<DataArray  type="UInt32"  Name="connectivity"  format="ascii">0 1 28  0 27 28  1 2 29  1 28 29  2 3 30  2 29 30  3 4 31  3 30 31  4 5 32  4 31 32  5 6 33  5 32 33  6 7 34  6 33 34  7 8 35  7 34 35  8 9 36  8 35 36  9 10 37  9 36 37  10 11 38  10 37 38  11 12 39  11 38 39  12 13 40  12 39 40  13 14 41  13 40 41  14 15 42  14 41 42  15 16 43  15 42 43  16 17 44  16 43 44  17 18 45  17 44 45  18 19 46  18 45 46  19 20 47  19 46 47  20 21 48  20 47 48  21 22 49  21 48 49  22 23 50  22 49 50  23 24 51  23 50 51  24 25 52  24 51 52  25 26 53  25 52 53  27 28 55  27 54 55  28 29 56  28 55 56  29 30 57  29 56 57  30 31 58  30 57 58  31 32 59  31 58 59  32 33 60  32 59 60  33 34 61  33 60 61  34 35 62  34 61 62  35 36 63  35 62 63  36 37 64  36 63 64  37 38 65  37 64 65  38 39 66  38 65 66  39 40 67  39 66 67  40 41 68  40 67 68  41 42 69  41 68 69  42 43 70  42 69 70  43 44 71  43 70 71  44 45 72  44 71 72  45 46 73  45 72 73  46 47 74  46 73 74  47 48 75  47 74 75  48 49 76  48 75 76  49 50 77  49 76 77  50 51 78  50 77 78  51 52 79  51 78 79  52 53 80  52 79 80  54 55 82  54 81 82  55 56 83  55 82 83  56 57 84  56 83 84  57 58 85  57 84 85  58 59 86  58 85 86  59 60 87  59 86 87  60 61 88  60 87 88  61 62 89  61 88 89  62 63 90  62 89 90  63 64 91  63 90 91  64 65 92  64 91 92  65 66 93  65 92 93  66 67 94  66 93 94  67 68 95  67 94 95  68 69 96  68 95 96  69 70 97  69 96 97  70 71 98  70 97 98  71 72 99  71 98 99  72 73 100  72 99 100  73 74 101  73 100 101  74 75 102  74 101 102  75 76 103  75 102 103  76 77 104  76 103 104  77 78 105  77 104 105  78 79 106  78 105 106  79 80 107  79 106 107  81 82 109  81 108 109  82 83 110  82 109 110  83 84 111  83 110 111  84 85 112  84 111 112  85 86 113  85 112 113  86 87 114  86 113 114  87 88 115  87 114 115  88 89 116  88 115 116  89 90 117  89 116 117  90 91 118  90 117 118  91 92 119  91 118 119  92 93 120  92 119 120  93 94 121  93 120 121  94 95 122  94 121 122  95 96 123  95 122 123  96 97 124  96 123 124  97 98 125  97 124 125  98 99 126  98 125 126  99 100 127  99 126 127  100 101 128  100 127 128  101 102 129  101 128 129  102 103 130  102 129 130  103 104 131  103 130 131  104 105 132  104 131 132  105 106 133  105 132 133  106 107 134  106 133 134  </DataArray>
<DataArray  type="UInt32"  Name="offsets"  format="ascii">3 6 9 12 15 18 21 24 27 30 33 36 39 42 45 48 51 54 57 60 63 66 69 72 75 78 81 84 87 90 93 96 99 102 105 108 111 114 117 120 123 126 129 132 135 138 141 144 147 150 153 156 159 162 165 168 171 174 177 180 183 186 189 192 195 198 201 204 207 210 213 216 219 222 225 228 231 234 237 240 243 246 249 252 255 258 261 264 267 270 273 276 279 282 285 288 291 294 297 300 303 306 309 312 315 318 321 324 327 330 333 336 339 342 345 348 351 354 357 360 363 366 369 372 375 378 381 384 387 390 393 396 399 402 405 408 411 414 417 420 423 426 429 432 435 438 441 444 447 450 453 456 459 462 465 468 471 474 477 480 483 486 489 492 495 498 501 504 507 510 513 516 519 522 525 528 531 534 537 540 543 546 549 552 555 558 561 564 567 570 573 576 579 582 585 588 591 594 597 600 603 606 609 612 615 618 621 624 </DataArray>
<DataArray  type="UInt8"  Name="types"  format="ascii">5 5 5 5 5 5 5 5 5 5 5 5 5 5 5 5 5 5 5 5 5 5 5 5 5 5 5 5 5 5 5 5 5 5 5 5 5 5 5 5 5 5 5 5 5 5 5 5 5 5 5 5 5 5 5 5 5 5 5 5 5 5 5 5 5 5 5 5 5 5 5 5 5 5 5 5 5 5 5 5 5 5 5 5 5 5 5 5 5 5 5 5 5 5 5 5 5 5 5 5 5 5 5 5 5 5 5 5 5 5 5 5 5 5 5 5 5 5 5 5 5 5 5 5 5 5 5 5 5 5 5 5 5 5 5 5 5 5 5 5 5 5 5 5 5 5 5 5 5 5 5 5 5 5 5 5 5 5 5 5 5 5 5 5 5 5 5 5 5 5 5 5 5 5 5 5 5 5 5 5 5 5 5 5 5 5 5 5 5 5 5 5 5 5 5 5 5 5 5 5 5 5 5 5 5 5 5 5 </DataArray>
</Cells>
<PointData  Vectors="Displacement"> 
<DataArray  type="Float64"  Name="Displacement"  NumberOfComponents="3" format="ascii">4.9184219197348370e-04 1.7001907693699609e-04 0.0000000000000000e+00  5.3849352845203194e-04 7.0552554719497873e-05 0.0000000000000000e+00  5.5021785931616248e-04 1.1583973297680848e-04 0.0000000000000000e+00  5.4211536642311919e-04 1.5209740167111425e-04 0.0000000000000000e+00  5.2683185645929765e-04 1.8145240237218684e-04 0.0000000000000000e+00  5.1122203204175237e-04 2.0290548615453823e-04 0.0000000000000000e+00  4.9763950806895911e-04 2.1787888243793489e-04 0.0000000000000000e+00  4.8609353260471190e-04 2.2386749851783068e-04 0.0000000000000000e+00  4.7503172058859883e-04 2.2839085641753894e-04 0.0000000000000000e+00  4.6586832237573524e-04 2.3027434014339678e-04 0.0000000000000000e+00  4.5683440403317832e-04 2.3020597842268381e-04 0.0000000000000000e+00  4.4734190690047477e-04 2.2229120954744559e-04 0.0000000000000000e+00  4.4180271867545718e-04 2.1796186498734409e-04 0.0000000000000000e+00  4.3826175208347233e-04 2.1044046255249216e-04 0.0000000000000000e+00  4.3443661135430877e-04 2.0246620407926610e-04 0.0000000000000000e+00  4.3022409865965016e-04 1.9363987078359275e-04 0.0000000000000000e+00  4.2764663311722179e-04 1.8520562348190337e-04 0.0000000000000000e+00  4.2528997953534040e-04 1.7746784800069945e-04 0.0000000000000000e+00  4.2441816127520692e-04 1.6943233060306160e-04 0.0000000000000000e+00  4.2508281204638740e-04 1.6254834624996136e-04 0.0000000000000000e+00  4.2682007427417173e-04 1.6024810384897647e-04 0.0000000000000000e+00  4.2893423660228145e-04 1.5758491516779558e-04 0.0000000000000000e+00  4.3185971479630053e-04 1.5675591710215462e-04 0.0000000000000000e+00  4.3476450039457823e-04 1.5911894068668648e-04 0.0000000000000000e+00  4.4217495753773924e-04 1.6636731088011614e-04 0.0000000000000000e+00  4.4795061510323209e-04 1.7238404357318866e-04 0.0000000000000000e+00  4.6453104700106511e-04 2.2925285156242446e-04 0.0000000000000000e+00  5.3356683161089676e-04 7.3642817319295533e-05 0.0000000000000000e+00  5.3269724965714299e-04 7.5746952643868456e-05 0.0000000000000000e+00  5.2230451844027478e-04 1.1581614962742864e-04 0.0000000000000000e+00  5.1457817344633088e-04 1.5628854882134084e-04 0.0000000000000000e+00  5.0500965997309598e-04 1.8745783541628149e-04 0.0000000000000000e+00  4.9518154631913623e-04 2.0946881153689100e-04 0.0000000000000000e+00  4.8689089784580131e-04 2.2249013464227337e-04 0.0000000000000000e+00  4.7983479059829094e-04 2.2942129308727483e-04 0.0000000000000000e+00  4.7186796473674573e-04 2.3436657180511461e-04 0.0000000000000000e+00  4.6420313659868435e-04 2.3468896715560120e-04 0.0000000000000000e+00  4.5788104204994761e-04 2.3433537406624685e-04 0.0000000000000000e+00  4.5218074397048629e-04 2.2754955580340177e-04 0.0000000000000000e+00  4.4739848402939334e-04 2.1999273614315388e-04 0.0000000000000000e+00  4.4423874126891209e-04 2.1278412395871505e-04 0.0000000000000000e+00  4.4065025928583234e-04 2.0563836328553171e-04 0.0000000000000000e+00  4.3756504546979948e-04 1.9641779112721463e-04 0.0000000000000000e+00  4.3535155877650353e-04 1.8703603022855210e-04 0.0000000000000000e+00  4.3389016565746602e-04 1.7954059835835988e-04 0.0000000000000000e+00  4.3264498063909764e-04 1.7020475349879057e-04 0.0000000000000000e+00  4.3243915710933684e-04 1.6405486296645175e-04 0.0000000000000000e+00  4.3114869405226066e-04 1.6056799961884193e-04 0.0000000000000000e+00  4.3131444521226243e-04 1.5801200696440978e-04 0.0000000000000000e+00  4.3115266896408402e-04 1.5721906826798976e-04 0.0000000000000000e+00  4.3256874720333147e-04 1.5833713105118489e-04 0.0000000000000000e+00  4.3357889546295764e-04 1.6597130469239119e-04 0.0000000000000000e+00  4.3403077250597560e-04 1.7955813964309013e-04 0.0000000000000000e+00  4.3632827585173283e-04 2.0441457965772743e-04 0.0000000000000000e+00  5.0067991168888971e-04 2.9479785670948774e-05 0.0000000000000000e+00  5.0854179848631737e-04 8.0027716899248297e-05 0.0000000000000000e+00  4.9897326472148724e-04 1.2124974332707133e-04 0.0000000000000000e+00  4.8916646617506543e-04 1.6123656763155443e-04 0.0000000000000000e+00  4.8360325128352913e-04 1.9064032687379694e-04 0.0000000000000000e+00  4.7960090231004407e-04 2.1237943374401104e-04 0.0000000000000000e+00  4.7545625564615054e-04 2.2504797456594775e-04 0.0000000000000000e+00  4.7122028552380339e-04 2.3314895314231220e-04 0.0000000000000000e+00  4.6739996822432560e-04 2.3687040219812244e-04 0.0000000000000000e+00  4.6286758275380609e-04 2.3772996083467552e-04 0.0000000000000000e+00  4.5889646033331349e-04 2.3656437992936537e-04 0.0000000000000000e+00  4.5548072624506357e-04 2.3001037728516749e-04 0.0000000000000000e+00  4.5261822122770099e-04 2.2125472964523688e-04 0.0000000000000000e+00  4.4949493130946085e-04 2.1478758693578191e-04 0.0000000000000000e+00  4.4626383868574051e-04 2.0777133236663011e-04 0.0000000000000000e+00  4.4498718216948483e-04 1.9636808148463050e-04 0.0000000000000000e+00  4.4335772503808915e-04 1.8707982315849066e-04 0.0000000000000000e+00  4.4157081590523299e-04 1.7973447900064186e-04 0.0000000000000000e+00  4.3900678280416944e-04 1.7006880468570441e-04 0.0000000000000000e+00  4.3707732382205003e-04 1.6532457716369756e-04 0.0000000000000000e+00  4.3560774601028080e-04 1.6156072954589423e-04 0.0000000000000000e+00  4.3210431070138703e-04 1.5921052980477366e-04 0.0000000000000000e+00  4.3019740493810394e-04 1.5819818052823358e-04 0.0000000000000000e+00  4.2807166494749244e-04 1.5861236584565816e-04 0.0000000000000000e+00  4.2633243950368640e-04 1.6575792208373350e-04 0.0000000000000000e+00  4.2693966417891959e-04 1.8052286458489762e-04 0.0000000000000000e+00  4.2835518621842973e-04 1.9308380098742979e-04 0.0000000000000000e+00  4.5270443050485714e-04 -1.1652861541056898e-05 0.0000000000000000e+00  4.6569210251173112e-04 7.6539760187380025e-05 0.0000000000000000e+00  4.6386184282788792e-04 1.2796020456629653e-04 0.0000000000000000e+00  4.6227303099240815e-04 1.6415612764514333e-04 0.0000000000000000e+00  4.6263331195252431e-04 1.9157340794470788e-04 0.0000000000000000e+00  4.6453815288924577e-04 2.1283251447114408e-04 0.0000000000000000e+00  4.6333353430327482e-04 2.2638783612512130e-04 0.0000000000000000e+00  4.6413798096227657e-04 2.3318815199469198e-04 0.0000000000000000e+00  4.6441395371762441e-04 2.3844110019897240e-04 0.0000000000000000e+00  4.6292232267469642e-04 2.3973548227408675e-04 0.0000000000000000e+00  4.6059631717064464e-04 2.3851181130893673e-04 0.0000000000000000e+00  4.5917904556143569e-04 2.3171919451252403e-04 0.0000000000000000e+00  4.5641886010012263e-04 2.2286869502522418e-04 0.0000000000000000e+00  4.5529078766494099e-04 2.1812641895451704e-04 0.0000000000000000e+00  4.5344866541523958e-04 2.0867855264667854e-04 0.0000000000000000e+00  4.5302196294941813e-04 1.9600451629284428e-04 0.0000000000000000e+00  4.5024417493716434e-04 1.8821433898648458e-04 0.0000000000000000e+00  4.4763467522047023e-04 1.8093016304622012e-04 0.0000000000000000e+00  4.4395915467092695e-04 1.7106881675278018e-04 0.0000000000000000e+00  4.4236967233506335e-04 1.6714826696255850e-04 0.0000000000000000e+00  4.3913296036314302e-04 1.6391954901649012e-04 0.0000000000000000e+00  4.3354939864985415e-04 1.6365541433540390e-04 0.0000000000000000e+00  4.2851301167457011e-04 1.5951231309832258e-04 0.0000000000000000e+00  4.2510117249473789e-04 1.6172281965377269e-04 0.0000000000000000e+00  4.2111469648639362e-04 1.6645152742151469e-04 0.0000000000000000e+00  4.2042170599970426e-04 1.7974115529644397e-04 0.0000000000000000e+00  4.2072816868374703e-04 1.9398490142305154e-04 0.0000000000000000e+00  3.3591928396513451e-04 -1.0818431135637606e-04 0.0000000000000000e+00  3.9894111414592181e-04 7.2432619771973936e-05 0.0000000000000000e+00  4.2461242550122181e-04 1.2595803014884112e-04 0.0000000000000000e+00  4.3563539215209088e-04 1.6227607842482782e-04 0.0000000000000000e+00  4.4333394402592608e-04 1.8985221038403258e-04 0.0000000000000000e+00  4.4766382328108615e-04 2.1065469790296551e-04 0.0000000000000000e+00  4.5469471814992078e-04 2.2598803490726964e-04 0.0000000000000000e+00  4.5814449462369325e-04 2.3180708773850776e-04 0.0000000000000000e+00  4.6143703209732884e-04 2.3871793910193621e-04 0.0000000000000000e+00  4.6226320008788292e-04 2.4002988513166699e-04 0.0000000000000000e+00  4.6343110597167587e-04 2.3864980000237821e-04 0.0000000000000000e+00  4.6327788382251393e-04 2.3238060736916483e-04 0.0000000000000000e+00  4.6113842764419440e-04 2.2412975878631646e-04 0.0000000000000000e+00  4.6026644272827307e-04 2.1842184938213486e-04 0.0000000000000000e+00  4.6205495962884372e-04 2.0855293245889079e-04 0.0000000000000000e+00  4.5957647502421962e-04 1.9659856464997080e-04 0.0000000000000000e+00  4.5670940420329385e-04 1.9023444012124509e-04 0.0000000000000000e+00  4.5421750710944496e-04 1.8292014142655885e-04 0.0000000000000000e+00  4.4931326309933308e-04 1.7328209040775211e-04 0.0000000000000000e+00  4.4541824373575125e-04 1.6900985982389177e-04 0.0000000000000000e+00  4.4024223791356648e-04 1.6615038297451302e-04 0.0000000000000000e+00  4.3613586870137557e-04 1.6877643135414390e-04 0.0000000000000000e+00  4.2843069501973099e-04 1.6281513677827682e-04 0.0000000000000000e+00  4.2105568966623394e-04 1.6456527669121747e-04 0.0000000000000000e+00  4.1422870527139027e-04 1.6883989611432679e-04 0.0000000000000000e+00  4.1038012497711499e-04 1.7984728641033372e-04 0.0000000000000000e+00  4.0824874241925818e-04 1.9380103915594672e-04 0.0000000000000000e+00  </DataArray> 
</PointData> 
</Piece>
</UnstructuredGrid>
</VTKFile>