<?xml version="1.0"?>
<VTKFile type="UnstructuredGrid"  version="0.1"  >
<UnstructuredGrid>
<Piece  NumberOfPoints="135" NumberOfCells="208">
<Points>
<DataArray  type="Float64"  NumberOfComponents="3"  format="ascii">1 1 0  1.076923076923077 1 0  1.153846153846154 1 0  1.230769230769231 1 0  1.307692307692308 1 0  1.384615384615385 1 0  1.461538461538462 1 0  1.538461538461538 1 0  1.615384615384615 1 0  1.692307692307692 1 0  1.769230769230769 1 0  1.846153846153846 1 0  1.923076923076923 1 0  2 1 0  2.076923076923077 1 0  2.153846153846154 1 0  2.230769230769231 1 0  2.307692307692307 1 0  2.384615384615385 1 0  2.461538461538462 1 0  2.538461538461538 1 0  2.615384615384615 1 0  2.692307692307693 1 0  2.769230769230769 1 0  2.846153846153846 1 0  2.923076923076923 1 0  3 1 0  1 1.0625 0  1.076923076923077 1.0625 0  1.153846153846154 1.0625 0  1.230769230769231 1.0625 0  1.307692307692308 1.0625 0  1.384615384615385 1.0625 0  1.461538461538462 1.0625 0  1.538461538461538 1.0625 0  1.615384615384615 1.0625 0  1.692307692307692 1.0625 0  1.769230769230769 1.0625 0  1.846153846153846 1.0625 0  1.923076923076923 1.0625 0  2 1.0625 0  2.076923076923077 1.0625 0  2.153846153846154 1.0625 0  2.230769230769231 1.0625 0  2.307692307692307 1.0625 0  2.384615384615385 1.0625 0  2.461538461538462 1.0625 0  2.538461538461538 1.0625 0  2.615384615384615 1.0625 0  2.692307692307693 1.0625 0  2.769230769230769 1.0625 0  2.846153846153846 1.0625 0  2.923076923076923 1.0625 0  3 1.0625 0  1 1.125 0  1.076923076923077 1.125 0  1.153846153846154 1.125 0  1.230769230769231 1.125 0  1.307692307692308 1.125 0  1.384615384615385 1.125 0  1.461538461538462 1.125 0  1.538461538461538 1.125 0  1.615384615384615 1.125 0  1.692307692307692 1.125 0  1.769230769230769 1.125 0  1.846153846153846 1.125 0  1.923076923076923 1.125 0  2 1.125 0  2.076923076923077 1.125 0  2.153846153846154 1.125 0  2.230769230769231 1.125 0  2.307692307692307 1.125 0  2.384615384615385 1.125 0  2.461538461538462 1.125 0  2.538461538461538 1.125 0  2.615384615384615 1.125 0  2.692307692307693 1.125 0  2.769230769230769 1.125 0  2.846153846153846 1.125 0  2.923076923076923 1.125 0  3 1.125 0  1 1.1875 0  1.076923076923077 1.1875 0  1.153846153846154 1.1875 0  1.230769230769231 1.1875 0  1.307692307692308 1.1875 0  1.384615384615385 1.1875 0  1.461538461538462 1.1875 0  1.538461538461538 1.1875 0  1.615384615384615 1.1875 0  1.692307692307692 1.1875 0  1.769230769230769 1.1875 0  1.846153846153846 1.1875 0  1.923076923076923 1.1875 0  2 1.1875 0  2.076923076923077 1.1875 0  2.153846153846154 1.1875 0  2.230769230769231 1.1875 0  2.307692307692307 1.1875 0  2.384615384615385 1.1875 0  2.461538461538462 1.1875 0  2.538461538461538 1.1875 0  2.615384615384615 1.1875 0  2.692307692307693 1.1875 0  2.769230769230769 1.1875 0  2.846153846153846 1.1875 0  2.923076923076923 1.1875 0  3 1.1875 0  1 1.25 0  1.076923076923077 1.25 0  1.153846153846154 1.25 0  1.230769230769231 1.25 0  1.307692307692308 1.25 0  1.384615384615385 1.25 0  1.461538461538462 1.25 0  1.538461538461538 1.25 0  1.615384615384615 1.25 0  1.692307692307692 1.25 0  1.769230769230769 1.25 0  1.846153846153846 1.25 0  1.923076923076923 1.25 0  2 1.25 0  2.076923076923077 1.25 0  2.153846153846154 1.25 0  2.230769230769231 1.25 0  2.307692307692307 1.25 0  2.384615384615385 1.25 0  2.461538461538462 1.25 0  2.538461538461538 1.25 0  2.615384615384615 1.25 0  2.692307692307693 1.25 0  2.769230769230769 1.25 0  2.846153846153846 1.25 0  2.923076923076923 1.25 0  3 1.25 0  </DataArray>
</Points>
<Cells>
<DataArray  type="UInt32"  Name="connectivity"  format="ascii">0 1 28  0 27 28  1 2 29  1 28 29  2 3 30  2 29 30  3 4 31  3 30 31  4 5 32  4 31 32  5 6 33  5 32 33  6 7 34  6 33 34  7 8 35  7 34 35  8 9 36  8 35 36  9 10 37  9 36 37  10 11 38  10 37 38  11 12 39  11 38 39  12 13 40  12 39 40  13 14 41  13 40 41  14 15 42  14 41 42  15 16 43  15 42 43  16 17 44  16 43 44  17 18 45  17 44 45  18 19 46  18 45 46  19 20 47  19 46 47  20 21 48  20 47 48  21 22 49  21 48 49  22 23 50  22 49 50  23 24 51  23 50 51  24 25 52  24 51 52  25 26 53  25 52 53  27 28 55  27 54 55  28 29 56  28 55 56  29 30 57  29 56 57  30 31 58  30 57 58  31 32 59  31 58 59  32 33 60  32 59 60  33 34 61  33 60 61  34 35 62  34 61 62  35 36 63  35 62 63  36 37 64  36 63 64  37 38 65  37 64 65  38 39 66  38 65 66  39 40 67  39 66 67  40 41 68  40 67 68  41 42 69  41 68 69  42 43 70  42 69 70  43 44 71  43 70 71  44 45 72  44 71 72  45 46 73  45 72 73  46 47 74  46 73 74  47 48 75  47 74 75  48 49 76  48 75 76  49 50 77  49 76 77  50 51 78  50 77 78  51 52 79  51 78 79  52 53 80  52 79 80  54 55 82  54 81 82  55 56 83  55 82 83  56 57 84  56 83 84  57 58 85  57 84 85  58 59 86  58 85 86  59 60 87  59 86 87  60 61 88  60 87 88  61 62 89  61 88 89  62 63 90  62 89 90  63 64 91  63 90 91  64 65 92  64 91 92  65 66 93  65 92 93  66 67 94  66 93 94  67 68 95  67 94 95  68 69 96  68 95 96  69 70 97  69 96 97  70 71 98  70 97 98  71 72 99  71 98 99  72 73 100  72 99 100  73 74 101  73 100 101  74 75 102  74 101 102  75 76 103  75 102 103  76 77 104  76 103 104  77 78 105  77 104 105  78 79 106  78 105 106  79 80 107  79 106 107  81 82 109  81 108 109  82 83 110  82 109 110  83 84 111  83 110 111  84 85 112  84 111 112  85 86 113  85 112 113  86 87 114  86 113 114  87 88 115  87 114 115  88 89 116  88 115 116  89 90 117  89 116 117  90 91 118  90 117 118  91 92 119  91 118 119  92 93 120  92 119 120  93 94 121  93 120 121  94 95 122  94 121 122  95 96 123  95 122 123  96 97 124  96 123 124  97 98 125  97 124 125  98 99 126  98 125 126  99 100 127  99 126 127  100 101 128  100 127 128  101 102 129  101 128 129  102 103 130  102 129 130  103 104 131  103 130 131  104 105 132  104 131 132  105 106 133  105 132 133  106 107 134  106 133 134  </DataArray>
<DataArray  type="UInt32"  Name="offsets"  format="ascii">3 6 9 12 15 18 21 24 27 30 33 36 39 42 45 48 51 54 57 60 63 66 69 72 75 78 81 84 87 90 93 96 99 102 105 108 111 114 117 120 123 126 129 132 135 138 141 144 147 150 153 156 159 162 165 168 171 174 177 180 183 186 189 192 195 198 201 204 207 210 213 216 219 222 225 228 231 234 237 240 243 246 249 252 255 258 261 264 267 270 273 276 279 282 285 288 291 294 297 300 303 306 309 312 315 318 321 324 327 330 333 336 339 342 345 348 351 354 357 360 363 366 369 372 375 378 381 384 387 390 393 396 399 402 405 408 411 414 417 420 423 426 429 432 435 438 441 444 447 450 453 456 459 462 465 468 471 474 477 480 483 486 489 492 495 498 501 504 507 510 513 516 519 522 525 528 531 534 537 540 543 546 549 552 555 558 561 564 567 570 573 576 579 582 585 588 591 594 597 600 603 606 609 612 615 618 621 624 </DataArray>
<DataArray  type="UInt8"  Name="types"  format="ascii">5 5 5 5 5 5 5 5 5 5 5 5 5 5 5 5 5 5 5 5 5 5 5 5 5 5 5 5 5 5 5 5 5 5 5 5 5 5 5 5 5 5 5 5 5 5 5 5 5 5 5 5 5 5 5 5 5 5 5 5 5 5 5 5 5 5 5 5 5 5 5 5 5 5 5 5 5 5 5 5 5 5 5 5 5 5 5 5 5 5 5 5 5 5 5 5 5 5 5 5 5 5 5 5 5 5 5 5 5 5 5 5 5 5 5 5 5 5 5 5 5 5 5 5 5 5 5 5 5 5 5 5 5 5 5 5 5 5 5 5 5 5 5 5 5 5 5 5 5 5 5 5 5 5 5 5 5 5 5 5 5 5 5 5 5 5 5 5 5 5 5 5 5 5 5 5 5 5 5 5 5 5 5 5 5 5 5 5 5 5 5 5 5 5 5 5 5 5 5 5 5 5 5 5 5 5 5 5 </DataArray>
</Cells>
<PointData  Vectors="Displacement"> 
<DataArray  type="Float64"  Name="Displacement"  NumberOfComponents="3" format="ascii">9.0374456999946511e-05 9.7691446199927454e-05 0.0000000000000000e+00  1.0612531840666855e-04 1.7210356624714632e-05 0.0000000000000000e+00  1.1287280816229951e-04 4.3493253786116449e-05 0.0000000000000000e+00  1.0147745024759492e-04 6.6113932564043209e-05 0.0000000000000000e+00  8.9367940119562873e-05 7.9326194058528110e-05 0.0000000000000000e+00  7.9811883252153395e-05 8.7091571102438178e-05 0.0000000000000000e+00  7.0232582329010805e-05 7.9034600587462117e-05 0.0000000000000000e+00  5.2668678716023113e-05 7.2173908043288905e-05 0.0000000000000000e+00  3.6203475866177238e-05 6.9618061814331143e-05 0.0000000000000000e+00  2.5061385436541122e-05 6.9842521076638164e-05 0.0000000000000000e+00  1.9483602408978705e-05 6.7500748983503813e-05 0.0000000000000000e+00  1.3838195795560002e-05 6.8825369348136025e-05 0.0000000000000000e+00  8.2853379193795065e-06 6.8666906009775920e-05 0.0000000000000000e+00  5.1942602923115649e-06 6.9008947363326324e-05 0.0000000000000000e+00  3.6411231085761833e-06 6.6770584207737131e-05 0.0000000000000000e+00  3.9964998645191771e-06 6.5055938278399075e-05 0.0000000000000000e+00  4.9004174255721781e-06 6.3313707724522875e-05 0.0000000000000000e+00  6.1760992568169513e-06 6.1825661049734861e-05 0.0000000000000000e+00  6.4406952663896008e-06 5.8331850789747241e-05 0.0000000000000000e+00  6.6492964829870057e-06 5.4557392372929889e-05 0.0000000000000000e+00  5.7545351179459646e-06 5.0577932760079957e-05 0.0000000000000000e+00  5.1756639529458384e-06 4.3780059812738744e-05 0.0000000000000000e+00  4.8474614939590706e-06 3.4933106969890986e-05 0.0000000000000000e+00  3.9497037045957237e-06 3.4864406912524533e-05 0.0000000000000000e+00  6.4952935717816329e-07 3.6823659742332227e-05 0.0000000000000000e+00  2.2129242886421789e-06 3.2471363068923018e-05 0.0000000000000000e+00  1.4306058218090669e-05 5.9712948106637166e-05 0.0000000000000000e+00  1.1537799287043683e-04 3.2585367596098926e-05 0.0000000000000000e+00  1.1259437115962192e-04 2.4556205525041508e-05 0.0000000000000000e+00  1.0054224131578046e-04 4.8269267060459360e-05 0.0000000000000000e+00  9.0275401395076139e-05 7.1551932215769184e-05 0.0000000000000000e+00  8.1321354232241605e-05 8.5052845549314659e-05 0.0000000000000000e+00  7.7942883528993315e-05 8.9625663482997137e-05 0.0000000000000000e+00  7.2437210983559573e-05 8.9212085276264063e-05 0.0000000000000000e+00  5.6587597886155317e-05 8.4619558456145650e-05 0.0000000000000000e+00  4.1697648821373260e-05 8.0679958038626829e-05 0.0000000000000000e+00  2.9911043384836284e-05 7.4606426376235192e-05 0.0000000000000000e+00  2.1331150359634075e-05 7.3273220751233185e-05 0.0000000000000000e+00  1.5150597113068286e-05 7.3328623983321989e-05 0.0000000000000000e+00  1.0483335630668248e-05 7.1179784234438569e-05 0.0000000000000000e+00  7.4736064464788749e-06 6.9788898228002804e-05 0.0000000000000000e+00  5.3502953319952082e-06 6.6896940404148898e-05 0.0000000000000000e+00  6.0585715357963961e-06 6.4845217559780609e-05 0.0000000000000000e+00  6.7668503291723755e-06 6.2333050350588663e-05 0.0000000000000000e+00  8.4609511182013710e-06 6.0542304244415025e-05 0.0000000000000000e+00  9.6570598116852228e-06 5.7116046493294905e-05 0.0000000000000000e+00  1.0546699149654661e-05 5.2967225715662344e-05 0.0000000000000000e+00  1.0447811043915015e-05 4.8542493906063580e-05 0.0000000000000000e+00  1.0798615717860829e-05 4.2310787816006638e-05 0.0000000000000000e+00  7.2619503321184609e-06 3.6441932768839821e-05 0.0000000000000000e+00  5.5447472349190882e-07 3.7219973885931321e-05 0.0000000000000000e+00  -1.9756259923350850e-06 3.7021150252676183e-05 0.0000000000000000e+00  -4.0940638460205150e-06 3.5231064864827236e-05 0.0000000000000000e+00  -3.1192354291769628e-06 4.4529184780826104e-05 0.0000000000000000e+00  1.0715671340750873e-04 1.2731558418276701e-05 0.0000000000000000e+00  1.0402558210142858e-04 3.2109700645578448e-05 0.0000000000000000e+00  9.0804727313934549e-05 5.7597636422124152e-05 0.0000000000000000e+00  8.0111697125829657e-05 7.7435669526188241e-05 0.0000000000000000e+00  7.3302671487424174e-05 8.8398427671712934e-05 0.0000000000000000e+00  6.9449843220503979e-05 8.8810274433567734e-05 0.0000000000000000e+00  6.5414220113808888e-05 9.3741325099925044e-05 0.0000000000000000e+00  5.4568958362452897e-05 9.2371120470852261e-05 0.0000000000000000e+00  4.3876320400683298e-05 8.4987359171648821e-05 0.0000000000000000e+00  3.4081379963055093e-05 8.2564737986279255e-05 0.0000000000000000e+00  2.5864703562566501e-05 7.8414993236508609e-05 0.0000000000000000e+00  1.8132467743194242e-05 7.5243127079769774e-05 0.0000000000000000e+00  1.3207054475681552e-05 7.1880004961731814e-05 0.0000000000000000e+00  9.7637016931819150e-06 6.9468156295197291e-05 0.0000000000000000e+00  7.1654450744888421e-06 6.6589941283772615e-05 0.0000000000000000e+00  8.5392069931147964e-06 6.3390344046985225e-05 0.0000000000000000e+00  9.0498924857498132e-06 6.0830500187011037e-05 0.0000000000000000e+00  1.1024084134950881e-05 5.7452266585721676e-05 0.0000000000000000e+00  1.2970083230983435e-05 5.4173433040089977e-05 0.0000000000000000e+00  1.4653196868530635e-05 5.0859682858565539e-05 0.0000000000000000e+00  1.4959090802083316e-05 4.6654202308193070e-05 0.0000000000000000e+00  1.3828941763822378e-05 4.2056610722292940e-05 0.0000000000000000e+00  8.6358741687813388e-06 4.1013561327188969e-05 0.0000000000000000e+00  6.1228849114621146e-07 4.0431813447019507e-05 0.0000000000000000e+00  -3.7435121223204279e-06 3.8495673056869756e-05 0.0000000000000000e+00  -6.0141476401090764e-06 3.5630889115142733e-05 0.0000000000000000e+00  -3.2296804391522475e-06 3.5790063403311851e-05 0.0000000000000000e+00  8.5403051511072150e-05 -4.0791400427706575e-06 0.0000000000000000e+00  7.8437450779951989e-05 3.4282092511107181e-05 0.0000000000000000e+00  7.0192099646490923e-05 6.5385641464262036e-05 0.0000000000000000e+00  6.4548337336433885e-05 8.2398867776078079e-05 0.0000000000000000e+00  6.1876506599148809e-05 8.8562725510932862e-05 0.0000000000000000e+00  6.0089813646859015e-05 8.7909499924422729e-05 0.0000000000000000e+00  5.8692324805576491e-05 9.1643118884155494e-05 0.0000000000000000e+00  5.3855514733753964e-05 9.5297246446132523e-05 0.0000000000000000e+00  4.3921245627382002e-05 8.5650165337404149e-05 0.0000000000000000e+00  3.8823086987005114e-05 8.6324365570143258e-05 0.0000000000000000e+00  3.0681363527052312e-05 8.1305101289236731e-05 0.0000000000000000e+00  2.2836412241270542e-05 7.6486691068982664e-05 0.0000000000000000e+00  1.6617356592086554e-05 7.2270947579558206e-05 0.0000000000000000e+00  1.3687720986874140e-05 6.8003068460527346e-05 0.0000000000000000e+00  1.0716028460411803e-05 6.4484323293007045e-05 0.0000000000000000e+00  1.1450205109586600e-05 6.1338233214816465e-05 0.0000000000000000e+00  1.1989462328779349e-05 5.7604086759830683e-05 0.0000000000000000e+00  1.3911076627002250e-05 5.3564778811785019e-05 0.0000000000000000e+00  1.5942902128092396e-05 5.0265507275410514e-05 0.0000000000000000e+00  1.7749921517070143e-05 4.6679467885609425e-05 0.0000000000000000e+00  1.8406059301291602e-05 4.3783462877363111e-05 0.0000000000000000e+00  1.6392045701397265e-05 4.1382103294386023e-05 0.0000000000000000e+00  1.1353283249310288e-05 4.4410694468938482e-05 0.0000000000000000e+00  5.4988318226951009e-06 4.3762800128405865e-05 0.0000000000000000e+00  1.2272651162387030e-06 3.9919396064898612e-05 0.0000000000000000e+00  -1.6564394070365756e-06 3.4783116575324578e-05 0.0000000000000000e+00  2.9885751950854764e-07 2.7951869094613663e-05 0.0000000000000000e+00  9.5297589678524427e-06 -6.4958046101981171e-05 0.0000000000000000e+00  4.0156110146734642e-05 3.5039064751480492e-05 0.0000000000000000e+00  4.8400039318716357e-05 6.7112477026240642e-05 0.0000000000000000e+00  5.5246754100135790e-05 8.3243345660668141e-05 0.0000000000000000e+00  5.7430598542499334e-05 8.7710470044344524e-05 0.0000000000000000e+00  5.8156972707513884e-05 9.0886926030295858e-05 0.0000000000000000e+00  5.1215665877113218e-05 9.1713682635075359e-05 0.0000000000000000e+00  5.2627879018553451e-05 9.6434403705298973e-05 0.0000000000000000e+00  4.8738433253278854e-05 8.9640962167929087e-05 0.0000000000000000e+00  4.1667172487678586e-05 9.0599294037255337e-05 0.0000000000000000e+00  3.3028868307819068e-05 8.4427934801717841e-05 0.0000000000000000e+00  2.8602564455972517e-05 8.0129117636305514e-05 0.0000000000000000e+00  2.2128974461052183e-05 7.5622050875299201e-05 0.0000000000000000e+00  1.7612277845111729e-05 6.9181203461644275e-05 0.0000000000000000e+00  1.3931194728436037e-05 6.4940460783293545e-05 0.0000000000000000e+00  1.4731916509540925e-05 6.1000254733330287e-05 0.0000000000000000e+00  1.5089234536610111e-05 5.5869739174074478e-05 0.0000000000000000e+00  1.7004788874694269e-05 5.1564467877228907e-05 0.0000000000000000e+00  1.8388340247749328e-05 4.8800840582743812e-05 0.0000000000000000e+00  1.9979533296726241e-05 4.5109260007167487e-05 0.0000000000000000e+00  1.9568159224354950e-05 4.3436883461729272e-05 0.0000000000000000e+00  1.6904684494973990e-05 4.3927358674324570e-05 0.0000000000000000e+00  1.2043119047713149e-05 4.6191195100361978e-05 0.0000000000000000e+00  8.8152650556719429e-06 4.6255295365372619e-05 0.0000000000000000e+00  7.4166628518144286e-06 4.2138346761264548e-05 0.0000000000000000e+00  6.2533916421788630e-06 3.4781330030957564e-05 0.0000000000000000e+00  6.8760990275112480e-06 2.4444094915413791e-05 0.0000000000000000e+00  </DataArray> 
</PointData> 
</Piece>
</UnstructuredGrid>
</VTKFile>