<?xml version="1.0"?>
<VTKFile type="UnstructuredGrid"  version="0.1"  >
<UnstructuredGrid>
<Piece  NumberOfPoints="135" NumberOfCells="208">
<Points>
<DataArray  type="Float64"  NumberOfComponents="3"  format="ascii">1 1 0  1.076923076923077 1 0  1.153846153846154 1 0  1.230769230769231 1 0  1.307692307692308 1 0  1.384615384615385 1 0  1.461538461538462 1 0  1.538461538461538 1 0  1.615384615384615 1 0  1.692307692307692 1 0  1.769230769230769 1 0  1.846153846153846 1 0  1.923076923076923 1 0  2 1 0  2.076923076923077 1 0  2.153846153846154 1 0  2.230769230769231 1 0  2.307692307692307 1 0  2.384615384615385 1 0  2.461538461538462 1 0  2.538461538461538 1 0  2.615384615384615 1 0  2.692307692307693 1 0  2.769230769230769 1 0  2.846153846153846 1 0  2.923076923076923 1 0  3 1 0  1 1.0625 0  1.076923076923077 1.0625 0  1.153846153846154 1.0625 0  1.230769230769231 1.0625 0  1.307692307692308 1.0625 0  1.384615384615385 1.0625 0  1.461538461538462 1.0625 0  1.538461538461538 1.0625 0  1.615384615384615 1.0625 0  1.692307692307692 1.0625 0  1.769230769230769 1.0625 0  1.846153846153846 1.0625 0  1.923076923076923 1.0625 0  2 1.0625 0  2.076923076923077 1.0625 0  2.153846153846154 1.0625 0  2.230769230769231 1.0625 0  2.307692307692307 1.0625 0  2.384615384615385 1.0625 0  2.461538461538462 1.0625 0  2.538461538461538 1.0625 0  2.615384615384615 1.0625 0  2.692307692307693 1.0625 0  2.769230769230769 1.0625 0  2.846153846153846 1.0625 0  2.923076923076923 1.0625 0  3 1.0625 0  1 1.125 0  1.076923076923077 1.125 0  1.153846153846154 1.125 0  1.230769230769231 1.125 0  1.307692307692308 1.125 0  1.384615384615385 1.125 0  1.461538461538462 1.125 0  1.538461538461538 1.125 0  1.615384615384615 1.125 0  1.692307692307692 1.125 0  1.769230769230769 1.125 0  1.846153846153846 1.125 0  1.923076923076923 1.125 0  2 1.125 0  2.076923076923077 1.125 0  2.153846153846154 1.125 0  2.230769230769231 1.125 0  2.307692307692307 1.125 0  2.384615384615385 1.125 0  2.461538461538462 1.125 0  2.538461538461538 1.125 0  2.615384615384615 1.125 0  2.692307692307693 1.125 0  2.769230769230769 1.125 0  2.846153846153846 1.125 0  2.923076923076923 1.125 0  3 1.125 0  1 1.1875 0  1.076923076923077 1.1875 0  1.153846153846154 1.1875 0  1.230769230769231 1.1875 0  1.307692307692308 1.1875 0  1.384615384615385 1.1875 0  1.461538461538462 1.1875 0  1.538461538461538 1.1875 0  1.615384615384615 1.1875 0  1.692307692307692 1.1875 0  1.769230769230769 1.1875 0  1.846153846153846 1.1875 0  1.923076923076923 1.1875 0  2 1.1875 0  2.076923076923077 1.1875 0  2.153846153846154 1.1875 0  2.230769230769231 1.1875 0  2.307692307692307 1.1875 0  2.384615384615385 1.1875 0  2.461538461538462 1.1875 0  2.538461538461538 1.1875 0  2.615384615384615 1.1875 0  2.692307692307693 1.1875 0  2.769230769230769 1.1875 0  2.846153846153846 1.1875 0  2.923076923076923 1.1875 0  3 1.1875 0  1 1.25 0  1.076923076923077 1.25 0  1.153846153846154 1.25 0  1.230769230769231 1.25 0  1.307692307692308 1.25 0  1.384615384615385 1.25 0  1.461538461538462 1.25 0  1.538461538461538 1.25 0  1.615384615384615 1.25 0  1.692307692307692 1.25 0  1.769230769230769 1.25 0  1.846153846153846 1.25 0  1.923076923076923 1.25 0  2 1.25 0  2.076923076923077 1.25 0  2.153846153846154 1.25 0  2.230769230769231 1.25 0  2.307692307692307 1.25 0  2.384615384615385 1.25 0  2.461538461538462 1.25 0  2.538461538461538 1.25 0  2.615384615384615 1.25 0  2.692307692307693 1.25 0  2.769230769230769 1.25 0  2.846153846153846 1.25 0  2.923076923076923 1.25 0  3 1.25 0  </DataArray>
</Points>
<Cells>
<DataArray  type="UInt32"  Name="connectivity"  format="ascii">0 1 28  0 27 28  1 2 29  1 28 29  2 3 30  2 29 30  3 4 31  3 30 31  4 5 32  4 31 32  5 6 33  5 32 33  6 7 34  6 33 34  7 8 35  7 34 35  8 9 36  8 35 36  9 10 37  9 36 37  10 11 38  10 37 38  11 12 39  11 38 39  12 13 40  12 39 40  13 14 41  13 40 41  14 15 42  14 41 42  15 16 43  15 42 43  16 17 44  16 43 44  17 18 45  17 44 45  18 19 46  18 45 46  19 20 47  19 46 47  20 21 48  20 47 48  21 22 49  21 48 49  22 23 50  22 49 50  23 24 51  23 50 51  24 25 52  24 51 52  25 26 53  25 52 53  27 28 55  27 54 55  28 29 56  28 55 56  29 30 57  29 56 57  30 31 58  30 57 58  31 32 59  31 58 59  32 33 60  32 59 60  33 34 61  33 60 61  34 35 62  34 61 62  35 36 63  35 62 63  36 37 64  36 63 64  37 38 65  37 64 65  38 39 66  38 65 66  39 40 67  39 66 67  40 41 68  40 67 68  41 42 69  41 68 69  42 43 70  42 69 70  43 44 71  43 70 71  44 45 72  44 71 72  45 46 73  45 72 73  46 47 74  46 73 74  47 48 75  47 74 75  48 49 76  48 75 76  49 50 77  49 76 77  50 51 78  50 77 78  51 52 79  51 78 79  52 53 80  52 79 80  54 55 82  54 81 82  55 56 83  55 82 83  56 57 84  56 83 84  57 58 85  57 84 85  58 59 86  58 85 86  59 60 87  59 86 87  60 61 88  60 87 88  61 62 89  61 88 89  62 63 90  62 89 90  63 64 91  63 90 91  64 65 92  64 91 92  65 66 93  65 92 93  66 67 94  66 93 94  67 68 95  67 94 95  68 69 96  68 95 96  69 70 97  69 96 97  70 71 98  70 97 98  71 72 99  71 98 99  72 73 100  72 99 100  73 74 101  73 100 101  74 75 102  74 101 102  75 76 103  75 102 103  76 77 104  76 103 104  77 78 105  77 104 105  78 79 106  78 105 106  79 80 107  79 106 107  81 82 109  81 108 109  82 83 110  82 109 110  83 84 111  83 110 111  84 85 112  84 111 112  85 86 113  85 112 113  86 87 114  86 113 114  87 88 115  87 114 115  88 89 116  88 115 116  89 90 117  89 116 117  90 91 118  90 117 118  91 92 119  91 118 119  92 93 120  92 119 120  93 94 121  93 120 121  94 95 122  94 121 122  95 96 123  95 122 123  96 97 124  96 123 124  97 98 125  97 124 125  98 99 126  98 125 126  99 100 127  99 126 127  100 101 128  100 127 128  101 102 129  101 128 129  102 103 130  102 129 130  103 104 131  103 130 131  104 105 132  104 131 132  105 106 133  105 132 133  106 107 134  106 133 134  </DataArray>
<DataArray  type="UInt32"  Name="offsets"  format="ascii">3 6 9 12 15 18 21 24 27 30 33 36 39 42 45 48 51 54 57 60 63 66 69 72 75 78 81 84 87 90 93 96 99 102 105 108 111 114 117 120 123 126 129 132 135 138 141 144 147 150 153 156 159 162 165 168 171 174 177 180 183 186 189 192 195 198 201 204 207 210 213 216 219 222 225 228 231 234 237 240 243 246 249 252 255 258 261 264 267 270 273 276 279 282 285 288 291 294 297 300 303 306 309 312 315 318 321 324 327 330 333 336 339 342 345 348 351 354 357 360 363 366 369 372 375 378 381 384 387 390 393 396 399 402 405 408 411 414 417 420 423 426 429 432 435 438 441 444 447 450 453 456 459 462 465 468 471 474 477 480 483 486 489 492 495 498 501 504 507 510 513 516 519 522 525 528 531 534 537 540 543 546 549 552 555 558 561 564 567 570 573 576 579 582 585 588 591 594 597 600 603 606 609 612 615 618 621 624 </DataArray>
<DataArray  type="UInt8"  Name="types"  format="ascii">5 5 5 5 5 5 5 5 5 5 5 5 5 5 5 5 5 5 5 5 5 5 5 5 5 5 5 5 5 5 5 5 5 5 5 5 5 5 5 5 5 5 5 5 5 5 5 5 5 5 5 5 5 5 5 5 5 5 5 5 5 5 5 5 5 5 5 5 5 5 5 5 5 5 5 5 5 5 5 5 5 5 5 5 5 5 5 5 5 5 5 5 5 5 5 5 5 5 5 5 5 5 5 5 5 5 5 5 5 5 5 5 5 5 5 5 5 5 5 5 5 5 5 5 5 5 5 5 5 5 5 5 5 5 5 5 5 5 5 5 5 5 5 5 5 5 5 5 5 5 5 5 5 5 5 5 5 5 5 5 5 5 5 5 5 5 5 5 5 5 5 5 5 5 5 5 5 5 5 5 5 5 5 5 5 5 5 5 5 5 5 5 5 5 5 5 5 5 5 5 5 5 5 5 5 5 5 5 </DataArray>
</Cells>
<PointData  Vectors="Displacement"> 
<DataArray  type="Float64"  Name="Displacement"  NumberOfComponents="3" format="ascii">2.4093486013353435e-04 1.8700726750888000e-04 0.0000000000000000e+00  2.8947313737621788e-04 7.0670589864898611e-05 0.0000000000000000e+00  3.0433544290977513e-04 1.0728367720149893e-04 0.0000000000000000e+00  2.9806163559010644e-04 1.3156595686893114e-04 0.0000000000000000e+00  2.8923854899076917e-04 1.5310045028723630e-04 0.0000000000000000e+00  2.7753429726981837e-04 1.6486352960854551e-04 0.0000000000000000e+00  2.6458067551553082e-04 1.7033040544099515e-04 0.0000000000000000e+00  2.5371636512569164e-04 1.7345548075040150e-04 0.0000000000000000e+00  2.4409384219594528e-04 1.7066026707541685e-04 0.0000000000000000e+00  2.3339796354745134e-04 1.7516147828540234e-04 0.0000000000000000e+00  2.2160068318642244e-04 1.7492641548426025e-04 0.0000000000000000e+00  2.1142500506420603e-04 1.6711425683638809e-04 0.0000000000000000e+00  2.0574919496856760e-04 1.5242933417981833e-04 0.0000000000000000e+00  2.0614676315804564e-04 1.4706086831025575e-04 0.0000000000000000e+00  2.0620714793255187e-04 1.4426936968465020e-04 0.0000000000000000e+00  2.0286720379915211e-04 1.4022143153526845e-04 0.0000000000000000e+00  1.9964763077946044e-04 1.3247785239547637e-04 0.0000000000000000e+00  1.9803500567187939e-04 1.2533097076385946e-04 0.0000000000000000e+00  1.9590559911359005e-04 1.1134469273692599e-04 0.0000000000000000e+00  2.0025588067310244e-04 1.0568301706983492e-04 0.0000000000000000e+00  2.0107069076336466e-04 9.9343037278689603e-05 0.0000000000000000e+00  2.0467931635979178e-04 1.0060500458288983e-04 0.0000000000000000e+00  2.0707482038418763e-04 9.8974718287596453e-05 0.0000000000000000e+00  2.1205470427199138e-04 8.9547923263666665e-05 0.0000000000000000e+00  2.1288288472466732e-04 9.4602653412867189e-05 0.0000000000000000e+00  2.1219630810735143e-04 9.3617672658218604e-05 0.0000000000000000e+00  2.2981413004182470e-04 1.4876406248109112e-04 0.0000000000000000e+00  2.9437039292290842e-04 8.7674990710182079e-05 0.0000000000000000e+00  2.9278254215284226e-04 7.5687661330262737e-05 0.0000000000000000e+00  2.8412050660532720e-04 1.0630771706844378e-04 0.0000000000000000e+00  2.7909170768376481e-04 1.3350876407226191e-04 0.0000000000000000e+00  2.7431631213921875e-04 1.5558034857360878e-04 0.0000000000000000e+00  2.6718115417358190e-04 1.6907167553587761e-04 0.0000000000000000e+00  2.5909237329383437e-04 1.7586751381508834e-04 0.0000000000000000e+00  2.5036704256959730e-04 1.7765819365353781e-04 0.0000000000000000e+00  2.4065595982315934e-04 1.7733650454886970e-04 0.0000000000000000e+00  2.3221326112839494e-04 1.8095629163565483e-04 0.0000000000000000e+00  2.2509117860718955e-04 1.7997503178094975e-04 0.0000000000000000e+00  2.1969103965779370e-04 1.7077588371608524e-04 0.0000000000000000e+00  2.1402041552443516e-04 1.5615072629153633e-04 0.0000000000000000e+00  2.1028683548450180e-04 1.4804083118053003e-04 0.0000000000000000e+00  2.0993533138891123e-04 1.4490292995155638e-04 0.0000000000000000e+00  2.0965307925948829e-04 1.4133391795248727e-04 0.0000000000000000e+00  2.0885893136749484e-04 1.3426648566078342e-04 0.0000000000000000e+00  2.0717215200201348e-04 1.2635245388135637e-04 0.0000000000000000e+00  2.0469179633459119e-04 1.1110278423497676e-04 0.0000000000000000e+00  2.0525197222240384e-04 1.0351148472874901e-04 0.0000000000000000e+00  2.0756588941573133e-04 9.9866132061911654e-05 0.0000000000000000e+00  2.0714250348828164e-04 9.7599171625479790e-05 0.0000000000000000e+00  2.1173497081625038e-04 9.6318956224435213e-05 0.0000000000000000e+00  2.1092869322990673e-04 9.0610205000984560e-05 0.0000000000000000e+00  2.0887816022770127e-04 9.6073642082746956e-05 0.0000000000000000e+00  2.0555375142124446e-04 1.0326650271231870e-04 0.0000000000000000e+00  2.0494063668538695e-04 1.1990691983738532e-04 0.0000000000000000e+00  2.7232068890377034e-04 4.8099069290840936e-05 0.0000000000000000e+00  2.7782395165021746e-04 8.0428873006788289e-05 0.0000000000000000e+00  2.6926303466210066e-04 1.0955969698935580e-04 0.0000000000000000e+00  2.6395481968791656e-04 1.3614542301343719e-04 0.0000000000000000e+00  2.6161248246272780e-04 1.5722180969268964e-04 0.0000000000000000e+00  2.5797828979857616e-04 1.7321295958146150e-04 0.0000000000000000e+00  2.5283712995015589e-04 1.8049307870006168e-04 0.0000000000000000e+00  2.4644284951040997e-04 1.8154817913615520e-04 0.0000000000000000e+00  2.3854374464186469e-04 1.8377448166487229e-04 0.0000000000000000e+00  2.3252356607471593e-04 1.8441899263175963e-04 0.0000000000000000e+00  2.2825897105676162e-04 1.8241875934626030e-04 0.0000000000000000e+00  2.2440740430973137e-04 1.7403288988680310e-04 0.0000000000000000e+00  2.1990644804253999e-04 1.6089497317392664e-04 0.0000000000000000e+00  2.1642053175586232e-04 1.5022733421947505e-04 0.0000000000000000e+00  2.1605051578458368e-04 1.4403663863085222e-04 0.0000000000000000e+00  2.1699501663451537e-04 1.4124706321134894e-04 0.0000000000000000e+00  2.1649266827651620e-04 1.3615945934445880e-04 0.0000000000000000e+00  2.1485344709045066e-04 1.2684155387519805e-04 0.0000000000000000e+00  2.1370527575165883e-04 1.1233474256634294e-04 0.0000000000000000e+00  2.1246380732147668e-04 1.0132570419411994e-04 0.0000000000000000e+00  2.1241523178182548e-04 9.9353108083159036e-05 0.0000000000000000e+00  2.1048514812987116e-04 9.8074194692061094e-05 0.0000000000000000e+00  2.0938431252165676e-04 9.6240032098587487e-05 0.0000000000000000e+00  2.0772853454192425e-04 9.4279173177912585e-05 0.0000000000000000e+00  2.0451080598229380e-04 9.9080555310417489e-05 0.0000000000000000e+00  2.0100885465192808e-04 1.0603663325786223e-04 0.0000000000000000e+00  2.0275104533605022e-04 1.1201756088797487e-04 0.0000000000000000e+00  2.3883455545985969e-04 1.0315487630600770e-05 0.0000000000000000e+00  2.4887907061072411e-04 7.7780652824923410e-05 0.0000000000000000e+00  2.4680701414246388e-04 1.1315665996933165e-04 0.0000000000000000e+00  2.4613879471781317e-04 1.3681206970924195e-04 0.0000000000000000e+00  2.4780472795755899e-04 1.5736909787747233e-04 0.0000000000000000e+00  2.4726239528249461e-04 1.7318973499136250e-04 0.0000000000000000e+00  2.4661585849579593e-04 1.8219266826848620e-04 0.0000000000000000e+00  2.4329445424044820e-04 1.8394635975414397e-04 0.0000000000000000e+00  2.3719032722075800e-04 1.8638655683736352e-04 0.0000000000000000e+00  2.3371138442809789e-04 1.8588552682421495e-04 0.0000000000000000e+00  2.3187249157353442e-04 1.8220329661925827e-04 0.0000000000000000e+00  2.2927531848622622e-04 1.7604867070011049e-04 0.0000000000000000e+00  2.2711026454205445e-04 1.6265046355574749e-04 0.0000000000000000e+00  2.2458478209740025e-04 1.5159220028210580e-04 0.0000000000000000e+00  2.2261021422039811e-04 1.4265812040420772e-04 0.0000000000000000e+00  2.2273464356460570e-04 1.4032965925208461e-04 0.0000000000000000e+00  2.2353267598318653e-04 1.3434400031580359e-04 0.0000000000000000e+00  2.2223793551445661e-04 1.2708260612091237e-04 0.0000000000000000e+00  2.1973508312229890e-04 1.1275437786619321e-04 0.0000000000000000e+00  2.1648339067593573e-04 9.9789059515104124e-05 0.0000000000000000e+00  2.1513236454629526e-04 9.6498034342653704e-05 0.0000000000000000e+00  2.1337092583543287e-04 9.9534732669008484e-05 0.0000000000000000e+00  2.0913736893084583e-04 9.6292424537269995e-05 0.0000000000000000e+00  2.0610801908759773e-04 9.4916713104543199e-05 0.0000000000000000e+00  2.0212860826967233e-04 1.0247397207823288e-04 0.0000000000000000e+00  2.0051857863548114e-04 1.0569437020222321e-04 0.0000000000000000e+00  2.0371029610033608e-04 1.0946918153711858e-04 0.0000000000000000e+00  1.4040560026614047e-04 -8.4024858809283163e-05 0.0000000000000000e+00  1.9715052497806324e-04 7.3623007158235440e-05 0.0000000000000000e+00  2.1845581131497941e-04 1.1039585684683588e-04 0.0000000000000000e+00  2.2687123037641065e-04 1.3408972812401315e-04 0.0000000000000000e+00  2.3217471469241731e-04 1.5498111898900487e-04 0.0000000000000000e+00  2.3632137249033461e-04 1.7077108189191749e-04 0.0000000000000000e+00  2.4009434968951486e-04 1.8080558946585335e-04 0.0000000000000000e+00  2.3932333455087607e-04 1.8473054259651354e-04 0.0000000000000000e+00  2.3723466604150150e-04 1.8752525259082054e-04 0.0000000000000000e+00  2.3625728378817582e-04 1.8552491922644882e-04 0.0000000000000000e+00  2.3500422392562595e-04 1.8146672773038683e-04 0.0000000000000000e+00  2.3617291478147780e-04 1.7603017613334929e-04 0.0000000000000000e+00  2.3603966812545894e-04 1.6258102709982715e-04 0.0000000000000000e+00  2.3226427787764116e-04 1.5299577895604694e-04 0.0000000000000000e+00  2.2954510186162604e-04 1.4254689842767068e-04 0.0000000000000000e+00  2.2847465901107699e-04 1.3843980317157517e-04 0.0000000000000000e+00  2.2833307555709565e-04 1.3332874939204505e-04 0.0000000000000000e+00  2.2844289721418438e-04 1.2686784599054348e-04 0.0000000000000000e+00  2.2764773598888842e-04 1.1382926805851721e-04 0.0000000000000000e+00  2.2155861143539755e-04 9.9863255384545545e-05 0.0000000000000000e+00  2.1520239016583354e-04 9.6565949970173632e-05 0.0000000000000000e+00  2.1429060315446012e-04 1.0026820749684612e-04 0.0000000000000000e+00  2.1225023476817420e-04 9.7964932214276393e-05 0.0000000000000000e+00  2.0591711293763143e-04 9.6861923927155723e-05 0.0000000000000000e+00  2.0201392799714705e-04 1.0550856945995236e-04 0.0000000000000000e+00  2.0008981766061370e-04 1.0407641493761928e-04 0.0000000000000000e+00  2.0067041899120012e-04 1.0936054336570440e-04 0.0000000000000000e+00  </DataArray> 
</PointData> 
</Piece>
</UnstructuredGrid>
</VTKFile>