<?xml version="1.0"?>
<VTKFile type="UnstructuredGrid"  version="0.1"  >
<UnstructuredGrid>
<Piece  NumberOfPoints="135" NumberOfCells="208">
<Points>
<DataArray  type="Float64"  NumberOfComponents="3"  format="ascii">1 1 0  1.076923076923077 1 0  1.153846153846154 1 0  1.230769230769231 1 0  1.307692307692308 1 0  1.384615384615385 1 0  1.461538461538462 1 0  1.538461538461538 1 0  1.615384615384615 1 0  1.692307692307692 1 0  1.769230769230769 1 0  1.846153846153846 1 0  1.923076923076923 1 0  2 1 0  2.076923076923077 1 0  2.153846153846154 1 0  2.230769230769231 1 0  2.307692307692307 1 0  2.384615384615385 1 0  2.461538461538462 1 0  2.538461538461538 1 0  2.615384615384615 1 0  2.692307692307693 1 0  2.769230769230769 1 0  2.846153846153846 1 0  2.923076923076923 1 0  3 1 0  1 1.0625 0  1.076923076923077 1.0625 0  1.153846153846154 1.0625 0  1.230769230769231 1.0625 0  1.307692307692308 1.0625 0  1.384615384615385 1.0625 0  1.461538461538462 1.0625 0  1.538461538461538 1.0625 0  1.615384615384615 1.0625 0  1.692307692307692 1.0625 0  1.769230769230769 1.0625 0  1.846153846153846 1.0625 0  1.923076923076923 1.0625 0  2 1.0625 0  2.076923076923077 1.0625 0  2.153846153846154 1.0625 0  2.230769230769231 1.0625 0  2.307692307692307 1.0625 0  2.384615384615385 1.0625 0  2.461538461538462 1.0625 0  2.538461538461538 1.0625 0  2.615384615384615 1.0625 0  2.692307692307693 1.0625 0  2.769230769230769 1.0625 0  2.846153846153846 1.0625 0  2.923076923076923 1.0625 0  3 1.0625 0  1 1.125 0  1.076923076923077 1.125 0  1.153846153846154 1.125 0  1.230769230769231 1.125 0  1.307692307692308 1.125 0  1.384615384615385 1.125 0  1.461538461538462 1.125 0  1.538461538461538 1.125 0  1.615384615384615 1.125 0  1.692307692307692 1.125 0  1.769230769230769 1.125 0  1.846153846153846 1.125 0  1.923076923076923 1.125 0  2 1.125 0  2.076923076923077 1.125 0  2.153846153846154 1.125 0  2.230769230769231 1.125 0  2.307692307692307 1.125 0  2.384615384615385 1.125 0  2.461538461538462 1.125 0  2.538461538461538 1.125 0  2.615384615384615 1.125 0  2.692307692307693 1.125 0  2.769230769230769 1.125 0  2.846153846153846 1.125 0  2.923076923076923 1.125 0  3 1.125 0  1 1.1875 0  1.076923076923077 1.1875 0  1.153846153846154 1.1875 0  1.230769230769231 1.1875 0  1.307692307692308 1.1875 0  1.384615384615385 1.1875 0  1.461538461538462 1.1875 0  1.538461538461538 1.1875 0  1.615384615384615 1.1875 0  1.692307692307692 1.1875 0  1.769230769230769 1.1875 0  1.846153846153846 1.1875 0  1.923076923076923 1.1875 0  2 1.1875 0  2.076923076923077 1.1875 0  2.153846153846154 1.1875 0  2.230769230769231 1.1875 0  2.307692307692307 1.1875 0  2.384615384615385 1.1875 0  2.461538461538462 1.1875 0  2.538461538461538 1.1875 0  2.615384615384615 1.1875 0  2.692307692307693 1.1875 0  2.769230769230769 1.1875 0  2.846153846153846 1.1875 0  2.923076923076923 1.1875 0  3 1.1875 0  1 1.25 0  1.076923076923077 1.25 0  1.153846153846154 1.25 0  1.230769230769231 1.25 0  1.307692307692308 1.25 0  1.384615384615385 1.25 0  1.461538461538462 1.25 0  1.538461538461538 1.25 0  1.615384615384615 1.25 0  1.692307692307692 1.25 0  1.769230769230769 1.25 0  1.846153846153846 1.25 0  1.923076923076923 1.25 0  2 1.25 0  2.076923076923077 1.25 0  2.153846153846154 1.25 0  2.230769230769231 1.25 0  2.307692307692307 1.25 0  2.384615384615385 1.25 0  2.461538461538462 1.25 0  2.538461538461538 1.25 0  2.615384615384615 1.25 0  2.692307692307693 1.25 0  2.769230769230769 1.25 0  2.846153846153846 1.25 0  2.923076923076923 1.25 0  3 1.25 0  </DataArray>
</Points>
<Cells>
<DataArray  type="UInt32"  Name="connectivity"  format="ascii">0 1 28  0 27 28  1 2 29  1 28 29  2 3 30  2 29 30  3 4 31  3 30 31  4 5 32  4 31 32  5 6 33  5 32 33  6 7 34  6 33 34  7 8 35  7 34 35  8 9 36  8 35 36  9 10 37  9 36 37  10 11 38  10 37 38  11 12 39  11 38 39  12 13 40  12 39 40  13 14 41  13 40 41  14 15 42  14 41 42  15 16 43  15 42 43  16 17 44  16 43 44  17 18 45  17 44 45  18 19 46  18 45 46  19 20 47  19 46 47  20 21 48  20 47 48  21 22 49  21 48 49  22 23 50  22 49 50  23 24 51  23 50 51  24 25 52  24 51 52  25 26 53  25 52 53  27 28 55  27 54 55  28 29 56  28 55 56  29 30 57  29 56 57  30 31 58  30 57 58  31 32 59  31 58 59  32 33 60  32 59 60  33 34 61  33 60 61  34 35 62  34 61 62  35 36 63  35 62 63  36 37 64  36 63 64  37 38 65  37 64 65  38 39 66  38 65 66  39 40 67  39 66 67  40 41 68  40 67 68  41 42 69  41 68 69  42 43 70  42 69 70  43 44 71  43 70 71  44 45 72  44 71 72  45 46 73  45 72 73  46 47 74  46 73 74  47 48 75  47 74 75  48 49 76  48 75 76  49 50 77  49 76 77  50 51 78  50 77 78  51 52 79  51 78 79  52 53 80  52 79 80  54 55 82  54 81 82  55 56 83  55 82 83  56 57 84  56 83 84  57 58 85  57 84 85  58 59 86  58 85 86  59 60 87  59 86 87  60 61 88  60 87 88  61 62 89  61 88 89  62 63 90  62 89 90  63 64 91  63 90 91  64 65 92  64 91 92  65 66 93  65 92 93  66 67 94  66 93 94  67 68 95  67 94 95  68 69 96  68 95 96  69 70 97  69 96 97  70 71 98  70 97 98  71 72 99  71 98 99  72 73 100  72 99 100  73 74 101  73 100 101  74 75 102  74 101 102  75 76 103  75 102 103  76 77 104  76 103 104  77 78 105  77 104 105  78 79 106  78 105 106  79 80 107  79 106 107  81 82 109  81 108 109  82 83 110  82 109 110  83 84 111  83 110 111  84 85 112  84 111 112  85 86 113  85 112 113  86 87 114  86 113 114  87 88 115  87 114 115  88 89 116  88 115 116  89 90 117  89 116 117  90 91 118  90 117 118  91 92 119  91 118 119  92 93 120  92 119 120  93 94 121  93 120 121  94 95 122  94 121 122  95 96 123  95 122 123  96 97 124  96 123 124  97 98 125  97 124 125  98 99 126  98 125 126  99 100 127  99 126 127  100 101 128  100 127 128  101 102 129  101 128 129  102 103 130  102 129 130  103 104 131  103 130 131  104 105 132  104 131 132  105 106 133  105 132 133  106 107 134  106 133 134  </DataArray>
<DataArray  type="UInt32"  Name="offsets"  format="ascii">3 6 9 12 15 18 21 24 27 30 33 36 39 42 45 48 51 54 57 60 63 66 69 72 75 78 81 84 87 90 93 96 99 102 105 108 111 114 117 120 123 126 129 132 135 138 141 144 147 150 153 156 159 162 165 168 171 174 177 180 183 186 189 192 195 198 201 204 207 210 213 216 219 222 225 228 231 234 237 240 243 246 249 252 255 258 261 264 267 270 273 276 279 282 285 288 291 294 297 300 303 306 309 312 315 318 321 324 327 330 333 336 339 342 345 348 351 354 357 360 363 366 369 372 375 378 381 384 387 390 393 396 399 402 405 408 411 414 417 420 423 426 429 432 435 438 441 444 447 450 453 456 459 462 465 468 471 474 477 480 483 486 489 492 495 498 501 504 507 510 513 516 519 522 525 528 531 534 537 540 543 546 549 552 555 558 561 564 567 570 573 576 579 582 585 588 591 594 597 600 603 606 609 612 615 618 621 624 </DataArray>
<DataArray  type="UInt8"  Name="types"  format="ascii">5 5 5 5 5 5 5 5 5 5 5 5 5 5 5 5 5 5 5 5 5 5 5 5 5 5 5 5 5 5 5 5 5 5 5 5 5 5 5 5 5 5 5 5 5 5 5 5 5 5 5 5 5 5 5 5 5 5 5 5 5 5 5 5 5 5 5 5 5 5 5 5 5 5 5 5 5 5 5 5 5 5 5 5 5 5 5 5 5 5 5 5 5 5 5 5 5 5 5 5 5 5 5 5 5 5 5 5 5 5 5 5 5 5 5 5 5 5 5 5 5 5 5 5 5 5 5 5 5 5 5 5 5 5 5 5 5 5 5 5 5 5 5 5 5 5 5 5 5 5 5 5 5 5 5 5 5 5 5 5 5 5 5 5 5 5 5 5 5 5 5 5 5 5 5 5 5 5 5 5 5 5 5 5 5 5 5 5 5 5 5 5 5 5 5 5 5 5 5 5 5 5 5 5 5 5 5 5 </DataArray>
</Cells>
<PointData  Vectors="Displacement"> 
<DataArray  type="Float64"  Name="Displacement"  NumberOfComponents="3" format="ascii">-2.2235946922707526e-05 5.1352046651261005e-05 0.0000000000000000e+00  5.8895674516065418e-06 1.2505216767814010e-05 0.0000000000000000e+00  5.4996271827941929e-06 1.8895391912450224e-05 0.0000000000000000e+00  4.9041359089005659e-06 2.0450642352655515e-05 0.0000000000000000e+00  4.8249567589695991e-06 1.9239810442477946e-05 0.0000000000000000e+00  4.5353594980336061e-06 2.0217930411342469e-05 0.0000000000000000e+00  4.2182798195245960e-06 1.9976454781173254e-05 0.0000000000000000e+00  3.9127337277448019e-06 2.0130154160974349e-05 0.0000000000000000e+00  3.6994499390503875e-06 2.0575332332570858e-05 0.0000000000000000e+00  3.3929748144519860e-06 1.9870267224423190e-05 0.0000000000000000e+00  3.2980315982319490e-06 2.0891957489764348e-05 0.0000000000000000e+00  2.9980844104875527e-06 1.9477127249475029e-05 0.0000000000000000e+00  2.9925323690004770e-06 2.0894219004554963e-05 0.0000000000000000e+00  2.7194402701209605e-06 1.9080797095829757e-05 0.0000000000000000e+00  2.7605316135038989e-06 2.0528837059601999e-05 0.0000000000000000e+00  2.5485452355407074e-06 1.8776698152874648e-05 0.0000000000000000e+00  2.5951967176571222e-06 1.9834778668706855e-05 0.0000000000000000e+00  2.4745059627496737e-06 1.8529421650718042e-05 0.0000000000000000e+00  2.5058767698024552e-06 1.8942540123856295e-05 0.0000000000000000e+00  2.4942625628143967e-06 1.8271089469177027e-05 0.0000000000000000e+00  2.5136760495936236e-06 1.7948213427360320e-05 0.0000000000000000e+00  2.6359756021876183e-06 1.7982058428642263e-05 0.0000000000000000e+00  2.6660497546862397e-06 1.6935384956171594e-05 0.0000000000000000e+00  2.9726478387605405e-06 1.7737738776705745e-05 0.0000000000000000e+00  3.2662389753448794e-06 1.5649593263739901e-05 0.0000000000000000e+00  6.1621502604302712e-06 2.1081055633378733e-05 0.0000000000000000e+00  3.2748589590172770e-06 1.0275372977808636e-05 0.0000000000000000e+00  2.3240859472329486e-05 1.6282689999445432e-05 0.0000000000000000e+00  1.0105369517027195e-05 2.0340189832267561e-06 0.0000000000000000e+00  2.9141520875446223e-07 8.7249653927671342e-06 0.0000000000000000e+00  2.9402660333088088e-07 8.0130297432113756e-06 0.0000000000000000e+00  8.5411414166227876e-08 7.6423896493211304e-06 0.0000000000000000e+00  -1.0269427734400670e-07 7.9158655097659448e-06 0.0000000000000000e+00  -6.5130508808704738e-08 7.7977965952370648e-06 0.0000000000000000e+00  -1.6797866643083307e-07 7.8917634493099364e-06 0.0000000000000000e+00  -1.4578278077716792e-07 7.9862031503773401e-06 0.0000000000000000e+00  -2.1305778575679725e-07 7.8090475775031412e-06 0.0000000000000000e+00  -2.1899149329161689e-07 8.0750286336256556e-06 0.0000000000000000e+00  -2.5015460624382286e-07 7.6642911836660664e-06 0.0000000000000000e+00  -2.8827108206219226e-07 8.0544383283624738e-06 0.0000000000000000e+00  -2.7804966005587920e-07 7.4980493938993050e-06 0.0000000000000000e+00  -3.4963874813214578e-07 7.9131938544901863e-06 0.0000000000000000e+00  -3.0460276830375173e-07 7.3474242497422367e-06 0.0000000000000000e+00  -3.9450626269989903e-07 7.6620358403540141e-06 0.0000000000000000e+00  -3.3681997196289236e-07 7.2114126095506997e-06 0.0000000000000000e+00  -4.2320574329468616e-07 7.3419551694318281e-06 0.0000000000000000e+00  -3.7153038023479472e-07 7.0719532457040173e-06 0.0000000000000000e+00  -4.4264203202892179e-07 6.9862712213871195e-06 0.0000000000000000e+00  -4.0791876324712946e-07 6.9240698088503297e-06 0.0000000000000000e+00  -4.5942081433388875e-07 6.6297479599991137e-06 0.0000000000000000e+00  -4.3486224952376057e-07 6.8253812656442863e-06 0.0000000000000000e+00  -4.5431705745071933e-07 6.5014418001539543e-06 0.0000000000000000e+00  8.0774975483563387e-07 7.7920021799511685e-06 0.0000000000000000e+00  3.2783019066801869e-06 4.0979275777123333e-06 0.0000000000000000e+00  2.3282295118207644e-05 -4.0672740147178392e-06 0.0000000000000000e+00  1.0073733983827837e-05 2.7348205032106512e-06 0.0000000000000000e+00  1.1018871052382067e-06 1.7030264168857273e-06 0.0000000000000000e+00  5.2387281360561186e-07 2.3260294706057592e-06 0.0000000000000000e+00  3.0587549359047229e-08 2.3052700851375958e-06 0.0000000000000000e+00  9.6967931196771008e-08 2.2538944655235975e-06 0.0000000000000000e+00  5.5140521225526420e-08 2.2789988366765796e-06 0.0000000000000000e+00  2.9083933716876468e-08 2.2769778608743855e-06 0.0000000000000000e+00  2.0321992259256505e-08 2.2974613427075963e-06 0.0000000000000000e+00  -1.4306904242473649e-08 2.2766236266045688e-06 0.0000000000000000e+00  -1.0446782875309520e-08 2.2888564403462634e-06 0.0000000000000000e+00  -4.7089501735930987e-08 2.2514024629087799e-06 0.0000000000000000e+00  -3.5239800249308993e-08 2.2541465469030911e-06 0.0000000000000000e+00  -6.9390680579954545e-08 2.2081533053827185e-06 0.0000000000000000e+00  -5.6330440640119696e-08 2.1979247126336302e-06 0.0000000000000000e+00  -8.2318034991646486e-08 2.1526798511682640e-06 0.0000000000000000e+00  -7.3922394107227891e-08 2.1270443229979524e-06 0.0000000000000000e+00  -8.8311477017918531e-08 2.0876006477646815e-06 0.0000000000000000e+00  -8.7296156758748595e-08 2.0487772321449398e-06 0.0000000000000000e+00  -8.8905410439828283e-08 2.0162244558238888e-06 0.0000000000000000e+00  -9.6160084400154229e-08 1.9679105314177575e-06 0.0000000000000000e+00  -8.4728416775166162e-08 1.9441755950485431e-06 0.0000000000000000e+00  -1.0129316056636047e-07 1.8899565457349992e-06 0.0000000000000000e+00  -7.9624885865807531e-08 1.8785782017651053e-06 0.0000000000000000e+00  -1.4100574622600961e-07 1.8113980851756008e-06 0.0000000000000000e+00  1.1591821975051131e-07 1.8812273323505699e-06 0.0000000000000000e+00  8.0463464251065126e-07 7.9882613095560521e-07 0.0000000000000000e+00  3.4193754788260887e-05 -1.4848822470276209e-05 0.0000000000000000e+00  1.4273804117530437e-05 1.2063623973985498e-06 0.0000000000000000e+00  1.5151206367022621e-06 -2.2061132776865144e-07 0.0000000000000000e+00  2.6626974498964708e-07 5.0624118627619629e-07 0.0000000000000000e+00  2.2352377380020895e-07 3.6076567393015251e-08 0.0000000000000000e+00  5.2008617493607120e-08 1.2731091330812080e-07 0.0000000000000000e+00  8.4338674197117319e-08 8.9495973210339474e-08 0.0000000000000000e+00  8.6425739842899865e-08 8.5357118015949967e-08 0.0000000000000000e+00  8.2457197718082341e-08 8.7469194065814026e-08 0.0000000000000000e+00  7.7096976908785088e-08 8.2751591242132002e-08 0.0000000000000000e+00  8.5003858652355036e-08 8.0920279949633286e-08 0.0000000000000000e+00  6.7016187121621106e-08 8.2883452231645366e-08 0.0000000000000000e+00  8.5973718791158944e-08 7.5967389394114017e-08 0.0000000000000000e+00  5.8908977337485896e-08 8.3910710109850045e-08 0.0000000000000000e+00  8.4167628781962345e-08 7.2659037111721321e-08 0.0000000000000000e+00  5.4143361100895683e-08 8.4859650727509737e-08 0.0000000000000000e+00  7.8906684302402976e-08 7.1407122537938453e-08 0.0000000000000000e+00  5.3078840805290280e-08 8.4514701693354899e-08 0.0000000000000000e+00  7.0985175245323899e-08 7.2452617526270895e-08 0.0000000000000000e+00  5.4678872958791091e-08 8.2718805296063514e-08 0.0000000000000000e+00  6.2059571822376526e-08 7.5162100907130478e-08 0.0000000000000000e+00  5.7943057224682881e-08 8.0681478630142266e-08 0.0000000000000000e+00  5.3544050203481397e-08 7.9741101104241441e-08 0.0000000000000000e+00  6.2830885353513378e-08 8.0254126802560335e-08 0.0000000000000000e+00  3.5543454679119348e-08 8.0348106062580118e-08 0.0000000000000000e+00  2.5661610961445780e-08 5.2334526396474139e-08 0.0000000000000000e+00  6.1325135328127516e-08 4.6060388809107022e-09 0.0000000000000000e+00  3.1421796718689221e-05 -3.5577626848941611e-05 0.0000000000000000e+00  1.1627154106971976e-05 9.6709833430601051e-06 0.0000000000000000e+00  2.2647979911282763e-07 -6.4404244890155948e-08 0.0000000000000000e+00  7.7371043523509913e-07 -4.2464365956093148e-07 0.0000000000000000e+00  -3.0345345304166922e-07 1.8545483542998984e-07 0.0000000000000000e+00  6.2116981573451096e-08 2.3453309774589194e-09 0.0000000000000000e+00  -6.4823927049185283e-08 8.2511786500847375e-08 0.0000000000000000e+00  -2.0268954981016274e-08 6.8827351005795811e-08 0.0000000000000000e+00  -2.1467947373388263e-08 6.9621146053258876e-08 0.0000000000000000e+00  -2.4423148441024394e-08 7.2694817106355443e-08 0.0000000000000000e+00  -1.8977237590844402e-08 6.6227839018581561e-08 0.0000000000000000e+00  -2.1484600773984967e-08 7.3738898760342272e-08 0.0000000000000000e+00  -1.8176489595589685e-08 6.4170158936832246e-08 0.0000000000000000e+00  -1.8339892423544435e-08 7.4138108006082868e-08 0.0000000000000000e+00  -1.7759545078902153e-08 6.3364283782690490e-08 0.0000000000000000e+00  -1.5209484168276257e-08 7.3071291519015378e-08 0.0000000000000000e+00  -1.7584505734110402e-08 6.4200904960506288e-08 0.0000000000000000e+00  -1.2475659194652300e-08 7.0528367318430961e-08 0.0000000000000000e+00  -1.7039823754448417e-08 6.5787452737584118e-08 0.0000000000000000e+00  -1.0750088485858600e-08 6.7630107949969720e-08 0.0000000000000000e+00  -1.5787625053537953e-08 6.7088668764611069e-08 0.0000000000000000e+00  -1.0017317952291697e-08 6.4905846758237394e-08 0.0000000000000000e+00  -1.4322306209248725e-08 6.8200910352114383e-08 0.0000000000000000e+00  -1.0443609323549010e-08 6.2879691358902162e-08 0.0000000000000000e+00  -1.8232986245053988e-08 6.9947129290753048e-08 0.0000000000000000e+00  -2.7485176723824247e-08 6.9078729915543026e-08 0.0000000000000000e+00  -1.4097095620023086e-07 1.1549407245448351e-07 0.0000000000000000e+00  </DataArray> 
</PointData> 
</Piece>
</UnstructuredGrid>
</VTKFile>