<?xml version="1.0"?>
<VTKFile type="UnstructuredGrid"  version="0.1"  >
<UnstructuredGrid>
<Piece  NumberOfPoints="135" NumberOfCells="208">
<Points>
<DataArray  type="Float64"  NumberOfComponents="3"  format="ascii">1 1 0  1.076923076923077 1 0  1.153846153846154 1 0  1.230769230769231 1 0  1.307692307692308 1 0  1.384615384615385 1 0  1.461538461538462 1 0  1.538461538461538 1 0  1.615384615384615 1 0  1.692307692307692 1 0  1.769230769230769 1 0  1.846153846153846 1 0  1.923076923076923 1 0  2 1 0  2.076923076923077 1 0  2.153846153846154 1 0  2.230769230769231 1 0  2.307692307692307 1 0  2.384615384615385 1 0  2.461538461538462 1 0  2.538461538461538 1 0  2.615384615384615 1 0  2.692307692307693 1 0  2.769230769230769 1 0  2.846153846153846 1 0  2.923076923076923 1 0  3 1 0  1 1.0625 0  1.076923076923077 1.0625 0  1.153846153846154 1.0625 0  1.230769230769231 1.0625 0  1.307692307692308 1.0625 0  1.384615384615385 1.0625 0  1.461538461538462 1.0625 0  1.538461538461538 1.0625 0  1.615384615384615 1.0625 0  1.692307692307692 1.0625 0  1.769230769230769 1.0625 0  1.846153846153846 1.0625 0  1.923076923076923 1.0625 0  2 1.0625 0  2.076923076923077 1.0625 0  2.153846153846154 1.0625 0  2.230769230769231 1.0625 0  2.307692307692307 1.0625 0  2.384615384615385 1.0625 0  2.461538461538462 1.0625 0  2.538461538461538 1.0625 0  2.615384615384615 1.0625 0  2.692307692307693 1.0625 0  2.769230769230769 1.0625 0  2.846153846153846 1.0625 0  2.923076923076923 1.0625 0  3 1.0625 0  1 1.125 0  1.076923076923077 1.125 0  1.153846153846154 1.125 0  1.230769230769231 1.125 0  1.307692307692308 1.125 0  1.384615384615385 1.125 0  1.461538461538462 1.125 0  1.538461538461538 1.125 0  1.615384615384615 1.125 0  1.692307692307692 1.125 0  1.769230769230769 1.125 0  1.846153846153846 1.125 0  1.923076923076923 1.125 0  2 1.125 0  2.076923076923077 1.125 0  2.153846153846154 1.125 0  2.230769230769231 1.125 0  2.307692307692307 1.125 0  2.384615384615385 1.125 0  2.461538461538462 1.125 0  2.538461538461538 1.125 0  2.615384615384615 1.125 0  2.692307692307693 1.125 0  2.769230769230769 1.125 0  2.846153846153846 1.125 0  2.923076923076923 1.125 0  3 1.125 0  1 1.1875 0  1.076923076923077 1.1875 0  1.153846153846154 1.1875 0  1.230769230769231 1.1875 0  1.307692307692308 1.1875 0  1.384615384615385 1.1875 0  1.461538461538462 1.1875 0  1.538461538461538 1.1875 0  1.615384615384615 1.1875 0  1.692307692307692 1.1875 0  1.769230769230769 1.1875 0  1.846153846153846 1.1875 0  1.923076923076923 1.1875 0  2 1.1875 0  2.076923076923077 1.1875 0  2.153846153846154 1.1875 0  2.230769230769231 1.1875 0  2.307692307692307 1.1875 0  2.384615384615385 1.1875 0  2.461538461538462 1.1875 0  2.538461538461538 1.1875 0  2.615384615384615 1.1875 0  2.692307692307693 1.1875 0  2.769230769230769 1.1875 0  2.846153846153846 1.1875 0  2.923076923076923 1.1875 0  3 1.1875 0  1 1.25 0  1.076923076923077 1.25 0  1.153846153846154 1.25 0  1.230769230769231 1.25 0  1.307692307692308 1.25 0  1.384615384615385 1.25 0  1.461538461538462 1.25 0  1.538461538461538 1.25 0  1.615384615384615 1.25 0  1.692307692307692 1.25 0  1.769230769230769 1.25 0  1.846153846153846 1.25 0  1.923076923076923 1.25 0  2 1.25 0  2.076923076923077 1.25 0  2.153846153846154 1.25 0  2.230769230769231 1.25 0  2.307692307692307 1.25 0  2.384615384615385 1.25 0  2.461538461538462 1.25 0  2.538461538461538 1.25 0  2.615384615384615 1.25 0  2.692307692307693 1.25 0  2.769230769230769 1.25 0  2.846153846153846 1.25 0  2.923076923076923 1.25 0  3 1.25 0  </DataArray>
</Points>
<Cells>
<DataArray  type="UInt32"  Name="connectivity"  format="ascii">0 1 28  0 27 28  1 2 29  1 28 29  2 3 30  2 29 30  3 4 31  3 30 31  4 5 32  4 31 32  5 6 33  5 32 33  6 7 34  6 33 34  7 8 35  7 34 35  8 9 36  8 35 36  9 10 37  9 36 37  10 11 38  10 37 38  11 12 39  11 38 39  12 13 40  12 39 40  13 14 41  13 40 41  14 15 42  14 41 42  15 16 43  15 42 43  16 17 44  16 43 44  17 18 45  17 44 45  18 19 46  18 45 46  19 20 47  19 46 47  20 21 48  20 47 48  21 22 49  21 48 49  22 23 50  22 49 50  23 24 51  23 50 51  24 25 52  24 51 52  25 26 53  25 52 53  27 28 55  27 54 55  28 29 56  28 55 56  29 30 57  29 56 57  30 31 58  30 57 58  31 32 59  31 58 59  32 33 60  32 59 60  33 34 61  33 60 61  34 35 62  34 61 62  35 36 63  35 62 63  36 37 64  36 63 64  37 38 65  37 64 65  38 39 66  38 65 66  39 40 67  39 66 67  40 41 68  40 67 68  41 42 69  41 68 69  42 43 70  42 69 70  43 44 71  43 70 71  44 45 72  44 71 72  45 46 73  45 72 73  46 47 74  46 73 74  47 48 75  47 74 75  48 49 76  48 75 76  49 50 77  49 76 77  50 51 78  50 77 78  51 52 79  51 78 79  52 53 80  52 79 80  54 55 82  54 81 82  55 56 83  55 82 83  56 57 84  56 83 84  57 58 85  57 84 85  58 59 86  58 85 86  59 60 87  59 86 87  60 61 88  60 87 88  61 62 89  61 88 89  62 63 90  62 89 90  63 64 91  63 90 91  64 65 92  64 91 92  65 66 93  65 92 93  66 67 94  66 93 94  67 68 95  67 94 95  68 69 96  68 95 96  69 70 97  69 96 97  70 71 98  70 97 98  71 72 99  71 98 99  72 73 100  72 99 100  73 74 101  73 100 101  74 75 102  74 101 102  75 76 103  75 102 103  76 77 104  76 103 104  77 78 105  77 104 105  78 79 106  78 105 106  79 80 107  79 106 107  81 82 109  81 108 109  82 83 110  82 109 110  83 84 111  83 110 111  84 85 112  84 111 112  85 86 113  85 112 113  86 87 114  86 113 114  87 88 115  87 114 115  88 89 116  88 115 116  89 90 117  89 116 117  90 91 118  90 117 118  91 92 119  91 118 119  92 93 120  92 119 120  93 94 121  93 120 121  94 95 122  94 121 122  95 96 123  95 122 123  96 97 124  96 123 124  97 98 125  97 124 125  98 99 126  98 125 126  99 100 127  99 126 127  100 101 128  100 127 128  101 102 129  101 128 129  102 103 130  102 129 130  103 104 131  103 130 131  104 105 132  104 131 132  105 106 133  105 132 133  106 107 134  106 133 134  </DataArray>
<DataArray  type="UInt32"  Name="offsets"  format="ascii">3 6 9 12 15 18 21 24 27 30 33 36 39 42 45 48 51 54 57 60 63 66 69 72 75 78 81 84 87 90 93 96 99 102 105 108 111 114 117 120 123 126 129 132 135 138 141 144 147 150 153 156 159 162 165 168 171 174 177 180 183 186 189 192 195 198 201 204 207 210 213 216 219 222 225 228 231 234 237 240 243 246 249 252 255 258 261 264 267 270 273 276 279 282 285 288 291 294 297 300 303 306 309 312 315 318 321 324 327 330 333 336 339 342 345 348 351 354 357 360 363 366 369 372 375 378 381 384 387 390 393 396 399 402 405 408 411 414 417 420 423 426 429 432 435 438 441 444 447 450 453 456 459 462 465 468 471 474 477 480 483 486 489 492 495 498 501 504 507 510 513 516 519 522 525 528 531 534 537 540 543 546 549 552 555 558 561 564 567 570 573 576 579 582 585 588 591 594 597 600 603 606 609 612 615 618 621 624 </DataArray>
<DataArray  type="UInt8"  Name="types"  format="ascii">5 5 5 5 5 5 5 5 5 5 5 5 5 5 5 5 5 5 5 5 5 5 5 5 5 5 5 5 5 5 5 5 5 5 5 5 5 5 5 5 5 5 5 5 5 5 5 5 5 5 5 5 5 5 5 5 5 5 5 5 5 5 5 5 5 5 5 5 5 5 5 5 5 5 5 5 5 5 5 5 5 5 5 5 5 5 5 5 5 5 5 5 5 5 5 5 5 5 5 5 5 5 5 5 5 5 5 5 5 5 5 5 5 5 5 5 5 5 5 5 5 5 5 5 5 5 5 5 5 5 5 5 5 5 5 5 5 5 5 5 5 5 5 5 5 5 5 5 5 5 5 5 5 5 5 5 5 5 5 5 5 5 5 5 5 5 5 5 5 5 5 5 5 5 5 5 5 5 5 5 5 5 5 5 5 5 5 5 5 5 5 5 5 5 5 5 5 5 5 5 5 5 5 5 5 5 5 5 </DataArray>
</Cells>
<PointData  Vectors="Displacement"> 
<DataArray  type="Float64"  Name="Displacement"  NumberOfComponents="3" format="ascii">2.5538970863354222e-04 1.8862341389723513e-04 0.0000000000000000e+00  3.0429171196589172e-04 7.2337567569208505e-05 0.0000000000000000e+00  3.1930378768389814e-04 1.0754887177460272e-04 0.0000000000000000e+00  3.1399313268685774e-04 1.3283641007640580e-04 0.0000000000000000e+00  3.0306790423186545e-04 1.5149068775173547e-04 0.0000000000000000e+00  2.9105441303003455e-04 1.6651067132582349e-04 0.0000000000000000e+00  2.7644638660341911e-04 1.7358702236856195e-04 0.0000000000000000e+00  2.6686278487300376e-04 1.7529662552390689e-04 0.0000000000000000e+00  2.5679483118511783e-04 1.8133797209446775e-04 0.0000000000000000e+00  2.4676949535386983e-04 1.8377111837730725e-04 0.0000000000000000e+00  2.3662878970136901e-04 1.8079322760214235e-04 0.0000000000000000e+00  2.2964681560649688e-04 1.7203297615041432e-04 0.0000000000000000e+00  2.2468359482774418e-04 1.6078111393335857e-04 0.0000000000000000e+00  2.2295432712259210e-04 1.5104790632536458e-04 0.0000000000000000e+00  2.2446154472175408e-04 1.4743516872680945e-04 0.0000000000000000e+00  2.2406876377832282e-04 1.4409232596339076e-04 0.0000000000000000e+00  2.2215917102080975e-04 1.3771340791107940e-04 0.0000000000000000e+00  2.1956628256096351e-04 1.2645056162176378e-04 0.0000000000000000e+00  2.1805427188603809e-04 1.1730316174231820e-04 0.0000000000000000e+00  2.1580309043682747e-04 1.0523501922269523e-04 0.0000000000000000e+00  2.2136101696927752e-04 1.0488632380681664e-04 0.0000000000000000e+00  2.2109557049433402e-04 9.8894014333430404e-05 0.0000000000000000e+00  2.2085761301978956e-04 9.6960006077507943e-05 0.0000000000000000e+00  2.2194126293772316e-04 1.0215872143918985e-04 0.0000000000000000e+00  2.2782099547632100e-04 1.0218462849436339e-04 0.0000000000000000e+00  2.3632882614587898e-04 1.0099568536772929e-04 0.0000000000000000e+00  2.5201781671535165e-04 1.5270085601877260e-04 0.0000000000000000e+00  3.1006758028565419e-04 8.8310410751864542e-05 0.0000000000000000e+00  3.0993545176578088e-04 7.7311279433425664e-05 0.0000000000000000e+00  3.0008206472448767e-04 1.0617021063343719e-04 0.0000000000000000e+00  2.9447041548972543e-04 1.3380287280046071e-04 0.0000000000000000e+00  2.8765913383269011e-04 1.5560290633674078e-04 0.0000000000000000e+00  2.7767129910458214e-04 1.7062630788017096e-04 0.0000000000000000e+00  2.6954339726389405e-04 1.7765251155856245e-04 0.0000000000000000e+00  2.6067977939678744e-04 1.8043147631733539e-04 0.0000000000000000e+00  2.5177872237144958e-04 1.8610883522905965e-04 0.0000000000000000e+00  2.4567672972979624e-04 1.8760997647395628e-04 0.0000000000000000e+00  2.4076106004849816e-04 1.8471835692353188e-04 0.0000000000000000e+00  2.3555109480986544e-04 1.7480484219954613e-04 0.0000000000000000e+00  2.3174541944968316e-04 1.6251915034749638e-04 0.0000000000000000e+00  2.2959602343710332e-04 1.5222436789466705e-04 0.0000000000000000e+00  2.2833013851062989e-04 1.4710473322659032e-04 0.0000000000000000e+00  2.2828258624594887e-04 1.4278142951768742e-04 0.0000000000000000e+00  2.3097190886772480e-04 1.3646509713848416e-04 0.0000000000000000e+00  2.2981500888630038e-04 1.2660735037851533e-04 0.0000000000000000e+00  2.2674136626573180e-04 1.1785005608085230e-04 0.0000000000000000e+00  2.2317737767268918e-04 1.0563289209373011e-04 0.0000000000000000e+00  2.2398481358131448e-04 1.0134939046501283e-04 0.0000000000000000e+00  2.2361342583126530e-04 9.9459585368863012e-05 0.0000000000000000e+00  2.2137793434251146e-04 9.7502895327581052e-05 0.0000000000000000e+00  2.2419347320041107e-04 9.9949491926949575e-05 0.0000000000000000e+00  2.2800055209295646e-04 1.0042830443794822e-04 0.0000000000000000e+00  2.2539029772596748e-04 1.0823404793374292e-04 0.0000000000000000e+00  2.2781470019012770e-04 1.2878061587163898e-04 0.0000000000000000e+00  2.8840715618703500e-04 4.7343238715781697e-05 0.0000000000000000e+00  2.9538115780446545e-04 8.1385115569288427e-05 0.0000000000000000e+00  2.8538524980701365e-04 1.1081512429832248e-04 0.0000000000000000e+00  2.7759375318768098e-04 1.3746420768361419e-04 0.0000000000000000e+00  2.7261852268979956e-04 1.5996293173208440e-04 0.0000000000000000e+00  2.6572810051478911e-04 1.7492752539460777e-04 0.0000000000000000e+00  2.6026092136453009e-04 1.8206811378189921e-04 0.0000000000000000e+00  2.5502736677833682e-04 1.8694066358826791e-04 0.0000000000000000e+00  2.4846301740060980e-04 1.8997381578761511e-04 0.0000000000000000e+00  2.4532432618392823e-04 1.9068764500670585e-04 0.0000000000000000e+00  2.4306879499147105e-04 1.8659669618571704e-04 0.0000000000000000e+00  2.4193708927571907e-04 1.7739040892589161e-04 0.0000000000000000e+00  2.3937757221066428e-04 1.6570467285133983e-04 0.0000000000000000e+00  2.3569746094389125e-04 1.5496682199888653e-04 0.0000000000000000e+00  2.3417963129968630e-04 1.4815837420695721e-04 0.0000000000000000e+00  2.3550580501693899e-04 1.4154448990370098e-04 0.0000000000000000e+00  2.3836811760809048e-04 1.3563503354321988e-04 0.0000000000000000e+00  2.3620062412609417e-04 1.2846645562436491e-04 0.0000000000000000e+00  2.3340193349425466e-04 1.2152707509012457e-04 0.0000000000000000e+00  2.2984462918621389e-04 1.0926782023778299e-04 0.0000000000000000e+00  2.2711631236273794e-04 1.0194359190169759e-04 0.0000000000000000e+00  2.2642521315955911e-04 1.0142261621730520e-04 0.0000000000000000e+00  2.2583627747883262e-04 9.9853515178524238e-05 0.0000000000000000e+00  2.2442989911282136e-04 9.8323149676608456e-05 0.0000000000000000e+00  2.2482615106343825e-04 1.0322804155668966e-04 0.0000000000000000e+00  2.2186505888739419e-04 1.1092609472075063e-04 0.0000000000000000e+00  2.2396090384932193e-04 1.2012341202649077e-04 0.0000000000000000e+00  2.5310486044112220e-04 8.9422767526398261e-06 0.0000000000000000e+00  2.6408788659579313e-04 7.9382855667942934e-05 0.0000000000000000e+00  2.6006231936283867e-04 1.1616270769083739e-04 0.0000000000000000e+00  2.5795766525276299e-04 1.4003347974100874e-04 0.0000000000000000e+00  2.5682691686285738e-04 1.6185546988380729e-04 0.0000000000000000e+00  2.5470851640943364e-04 1.7813568589727764e-04 0.0000000000000000e+00  2.5168227052090931e-04 1.8486850550340466e-04 0.0000000000000000e+00  2.4940082896013788e-04 1.9049067632033174e-04 0.0000000000000000e+00  2.4669736890890710e-04 1.9199147281736466e-04 0.0000000000000000e+00  2.4663952173097379e-04 1.9211411077393959e-04 0.0000000000000000e+00  2.4630537695482331e-04 1.8766417277874854e-04 0.0000000000000000e+00  2.4645789832789650e-04 1.7831433870342135e-04 0.0000000000000000e+00  2.4465076851513490e-04 1.6802175421288743e-04 0.0000000000000000e+00  2.4229364674901278e-04 1.5618331189361080e-04 0.0000000000000000e+00  2.4135490427951858e-04 1.4819775347463894e-04 0.0000000000000000e+00  2.4224454495769601e-04 1.3988349933150322e-04 0.0000000000000000e+00  2.4424817515803708e-04 1.3517149334821613e-04 0.0000000000000000e+00  2.4302248344316624e-04 1.3135976532661111e-04 0.0000000000000000e+00  2.4019273979910034e-04 1.2565920756397713e-04 0.0000000000000000e+00  2.3570976147546367e-04 1.1277253131791890e-04 0.0000000000000000e+00  2.3176443256227986e-04 1.0394399192443787e-04 0.0000000000000000e+00  2.2867876982976760e-04 1.0223811474476071e-04 0.0000000000000000e+00  2.2790873491844752e-04 1.0146405143982217e-04 0.0000000000000000e+00  2.2410669927872166e-04 1.0105705737304263e-04 0.0000000000000000e+00  2.2081551544858225e-04 1.0435424826161455e-04 0.0000000000000000e+00  2.1820884275564308e-04 1.1264174190563576e-04 0.0000000000000000e+00  2.1725776081252233e-04 1.1725630254883870e-04 0.0000000000000000e+00  1.5223996700926685e-04 -8.6298581040627172e-05 0.0000000000000000e+00  2.1012575823161779e-04 7.6301907742597588e-05 0.0000000000000000e+00  2.3161121531313942e-04 1.1405473405331263e-04 0.0000000000000000e+00  2.3846111259162765e-04 1.3912572284489834e-04 0.0000000000000000e+00  2.4145439265617171e-04 1.6106473209195383e-04 0.0000000000000000e+00  2.4409975736699435e-04 1.7829302249503987e-04 0.0000000000000000e+00  2.4618323126126082e-04 1.8584588899257847e-04 0.0000000000000000e+00  2.4532087041665882e-04 1.9065775129942553e-04 0.0000000000000000e+00  2.4714586659402087e-04 1.9240772934140911e-04 0.0000000000000000e+00  2.4750384472758697e-04 1.9152913694359550e-04 0.0000000000000000e+00  2.5131646434419479e-04 1.8682355421888075e-04 0.0000000000000000e+00  2.5135097131219968e-04 1.7786465060047249e-04 0.0000000000000000e+00  2.5222268995734101e-04 1.6902062992578350e-04 0.0000000000000000e+00  2.5009121966415083e-04 1.5674015475510139e-04 0.0000000000000000e+00  2.4852628496251891e-04 1.4877079368843090e-04 0.0000000000000000e+00  2.4796723921253122e-04 1.3906918734511286e-04 0.0000000000000000e+00  2.4749005751102313e-04 1.3478172807027225e-04 0.0000000000000000e+00  2.4884279189910070e-04 1.3173187345718804e-04 0.0000000000000000e+00  2.4774549057618813e-04 1.2757183864875121e-04 0.0000000000000000e+00  2.4412708610833313e-04 1.1532177515679097e-04 0.0000000000000000e+00  2.3558713341780588e-04 1.0727099985108702e-04 0.0000000000000000e+00  2.3158033703615227e-04 1.0326592771973279e-04 0.0000000000000000e+00  2.2590059481211584e-04 1.0333968428150205e-04 0.0000000000000000e+00  2.2354338451782658e-04 1.0379518621511397e-04 0.0000000000000000e+00  2.1769492662914675e-04 1.0602008578948304e-04 0.0000000000000000e+00  2.1525984539514937e-04 1.1469632801147035e-04 0.0000000000000000e+00  2.1637362767867673e-04 1.1585847317541186e-04 0.0000000000000000e+00  </DataArray> 
</PointData> 
</Piece>
</UnstructuredGrid>
</VTKFile>