<?xml version="1.0"?>
<VTKFile type="UnstructuredGrid"  version="0.1"  >
<UnstructuredGrid>
<Piece  NumberOfPoints="135" NumberOfCells="208">
<Points>
<DataArray  type="Float64"  NumberOfComponents="3"  format="ascii">1 1 0  1.076923076923077 1 0  1.153846153846154 1 0  1.230769230769231 1 0  1.307692307692308 1 0  1.384615384615385 1 0  1.461538461538462 1 0  1.538461538461538 1 0  1.615384615384615 1 0  1.692307692307692 1 0  1.769230769230769 1 0  1.846153846153846 1 0  1.923076923076923 1 0  2 1 0  2.076923076923077 1 0  2.153846153846154 1 0  2.230769230769231 1 0  2.307692307692307 1 0  2.384615384615385 1 0  2.461538461538462 1 0  2.538461538461538 1 0  2.615384615384615 1 0  2.692307692307693 1 0  2.769230769230769 1 0  2.846153846153846 1 0  2.923076923076923 1 0  3 1 0  1 1.0625 0  1.076923076923077 1.0625 0  1.153846153846154 1.0625 0  1.230769230769231 1.0625 0  1.307692307692308 1.0625 0  1.384615384615385 1.0625 0  1.461538461538462 1.0625 0  1.538461538461538 1.0625 0  1.615384615384615 1.0625 0  1.692307692307692 1.0625 0  1.769230769230769 1.0625 0  1.846153846153846 1.0625 0  1.923076923076923 1.0625 0  2 1.0625 0  2.076923076923077 1.0625 0  2.153846153846154 1.0625 0  2.230769230769231 1.0625 0  2.307692307692307 1.0625 0  2.384615384615385 1.0625 0  2.461538461538462 1.0625 0  2.538461538461538 1.0625 0  2.615384615384615 1.0625 0  2.692307692307693 1.0625 0  2.769230769230769 1.0625 0  2.846153846153846 1.0625 0  2.923076923076923 1.0625 0  3 1.0625 0  1 1.125 0  1.076923076923077 1.125 0  1.153846153846154 1.125 0  1.230769230769231 1.125 0  1.307692307692308 1.125 0  1.384615384615385 1.125 0  1.461538461538462 1.125 0  1.538461538461538 1.125 0  1.615384615384615 1.125 0  1.692307692307692 1.125 0  1.769230769230769 1.125 0  1.846153846153846 1.125 0  1.923076923076923 1.125 0  2 1.125 0  2.076923076923077 1.125 0  2.153846153846154 1.125 0  2.230769230769231 1.125 0  2.307692307692307 1.125 0  2.384615384615385 1.125 0  2.461538461538462 1.125 0  2.538461538461538 1.125 0  2.615384615384615 1.125 0  2.692307692307693 1.125 0  2.769230769230769 1.125 0  2.846153846153846 1.125 0  2.923076923076923 1.125 0  3 1.125 0  1 1.1875 0  1.076923076923077 1.1875 0  1.153846153846154 1.1875 0  1.230769230769231 1.1875 0  1.307692307692308 1.1875 0  1.384615384615385 1.1875 0  1.461538461538462 1.1875 0  1.538461538461538 1.1875 0  1.615384615384615 1.1875 0  1.692307692307692 1.1875 0  1.769230769230769 1.1875 0  1.846153846153846 1.1875 0  1.923076923076923 1.1875 0  2 1.1875 0  2.076923076923077 1.1875 0  2.153846153846154 1.1875 0  2.230769230769231 1.1875 0  2.307692307692307 1.1875 0  2.384615384615385 1.1875 0  2.461538461538462 1.1875 0  2.538461538461538 1.1875 0  2.615384615384615 1.1875 0  2.692307692307693 1.1875 0  2.769230769230769 1.1875 0  2.846153846153846 1.1875 0  2.923076923076923 1.1875 0  3 1.1875 0  1 1.25 0  1.076923076923077 1.25 0  1.153846153846154 1.25 0  1.230769230769231 1.25 0  1.307692307692308 1.25 0  1.384615384615385 1.25 0  1.461538461538462 1.25 0  1.538461538461538 1.25 0  1.615384615384615 1.25 0  1.692307692307692 1.25 0  1.769230769230769 1.25 0  1.846153846153846 1.25 0  1.923076923076923 1.25 0  2 1.25 0  2.076923076923077 1.25 0  2.153846153846154 1.25 0  2.230769230769231 1.25 0  2.307692307692307 1.25 0  2.384615384615385 1.25 0  2.461538461538462 1.25 0  2.538461538461538 1.25 0  2.615384615384615 1.25 0  2.692307692307693 1.25 0  2.769230769230769 1.25 0  2.846153846153846 1.25 0  2.923076923076923 1.25 0  3 1.25 0  </DataArray>
</Points>
<Cells>
<DataArray  type="UInt32"  Name="connectivity"  format="ascii">0 1 28  0 27 28  1 2 29  1 28 29  2 3 30  2 29 30  3 4 31  3 30 31  4 5 32  4 31 32  5 6 33  5 32 33  6 7 34  6 33 34  7 8 35  7 34 35  8 9 36  8 35 36  9 10 37  9 36 37  10 11 38  10 37 38  11 12 39  11 38 39  12 13 40  12 39 40  13 14 41  13 40 41  14 15 42  14 41 42  15 16 43  15 42 43  16 17 44  16 43 44  17 18 45  17 44 45  18 19 46  18 45 46  19 20 47  19 46 47  20 21 48  20 47 48  21 22 49  21 48 49  22 23 50  22 49 50  23 24 51  23 50 51  24 25 52  24 51 52  25 26 53  25 52 53  27 28 55  27 54 55  28 29 56  28 55 56  29 30 57  29 56 57  30 31 58  30 57 58  31 32 59  31 58 59  32 33 60  32 59 60  33 34 61  33 60 61  34 35 62  34 61 62  35 36 63  35 62 63  36 37 64  36 63 64  37 38 65  37 64 65  38 39 66  38 65 66  39 40 67  39 66 67  40 41 68  40 67 68  41 42 69  41 68 69  42 43 70  42 69 70  43 44 71  43 70 71  44 45 72  44 71 72  45 46 73  45 72 73  46 47 74  46 73 74  47 48 75  47 74 75  48 49 76  48 75 76  49 50 77  49 76 77  50 51 78  50 77 78  51 52 79  51 78 79  52 53 80  52 79 80  54 55 82  54 81 82  55 56 83  55 82 83  56 57 84  56 83 84  57 58 85  57 84 85  58 59 86  58 85 86  59 60 87  59 86 87  60 61 88  60 87 88  61 62 89  61 88 89  62 63 90  62 89 90  63 64 91  63 90 91  64 65 92  64 91 92  65 66 93  65 92 93  66 67 94  66 93 94  67 68 95  67 94 95  68 69 96  68 95 96  69 70 97  69 96 97  70 71 98  70 97 98  71 72 99  71 98 99  72 73 100  72 99 100  73 74 101  73 100 101  74 75 102  74 101 102  75 76 103  75 102 103  76 77 104  76 103 104  77 78 105  77 104 105  78 79 106  78 105 106  79 80 107  79 106 107  81 82 109  81 108 109  82 83 110  82 109 110  83 84 111  83 110 111  84 85 112  84 111 112  85 86 113  85 112 113  86 87 114  86 113 114  87 88 115  87 114 115  88 89 116  88 115 116  89 90 117  89 116 117  90 91 118  90 117 118  91 92 119  91 118 119  92 93 120  92 119 120  93 94 121  93 120 121  94 95 122  94 121 122  95 96 123  95 122 123  96 97 124  96 123 124  97 98 125  97 124 125  98 99 126  98 125 126  99 100 127  99 126 127  100 101 128  100 127 128  101 102 129  101 128 129  102 103 130  102 129 130  103 104 131  103 130 131  104 105 132  104 131 132  105 106 133  105 132 133  106 107 134  106 133 134  </DataArray>
<DataArray  type="UInt32"  Name="offsets"  format="ascii">3 6 9 12 15 18 21 24 27 30 33 36 39 42 45 48 51 54 57 60 63 66 69 72 75 78 81 84 87 90 93 96 99 102 105 108 111 114 117 120 123 126 129 132 135 138 141 144 147 150 153 156 159 162 165 168 171 174 177 180 183 186 189 192 195 198 201 204 207 210 213 216 219 222 225 228 231 234 237 240 243 246 249 252 255 258 261 264 267 270 273 276 279 282 285 288 291 294 297 300 303 306 309 312 315 318 321 324 327 330 333 336 339 342 345 348 351 354 357 360 363 366 369 372 375 378 381 384 387 390 393 396 399 402 405 408 411 414 417 420 423 426 429 432 435 438 441 444 447 450 453 456 459 462 465 468 471 474 477 480 483 486 489 492 495 498 501 504 507 510 513 516 519 522 525 528 531 534 537 540 543 546 549 552 555 558 561 564 567 570 573 576 579 582 585 588 591 594 597 600 603 606 609 612 615 618 621 624 </DataArray>
<DataArray  type="UInt8"  Name="types"  format="ascii">5 5 5 5 5 5 5 5 5 5 5 5 5 5 5 5 5 5 5 5 5 5 5 5 5 5 5 5 5 5 5 5 5 5 5 5 5 5 5 5 5 5 5 5 5 5 5 5 5 5 5 5 5 5 5 5 5 5 5 5 5 5 5 5 5 5 5 5 5 5 5 5 5 5 5 5 5 5 5 5 5 5 5 5 5 5 5 5 5 5 5 5 5 5 5 5 5 5 5 5 5 5 5 5 5 5 5 5 5 5 5 5 5 5 5 5 5 5 5 5 5 5 5 5 5 5 5 5 5 5 5 5 5 5 5 5 5 5 5 5 5 5 5 5 5 5 5 5 5 5 5 5 5 5 5 5 5 5 5 5 5 5 5 5 5 5 5 5 5 5 5 5 5 5 5 5 5 5 5 5 5 5 5 5 5 5 5 5 5 5 5 5 5 5 5 5 5 5 5 5 5 5 5 5 5 5 5 5 </DataArray>
</Cells>
<PointData  Vectors="Displacement"> 
<DataArray  type="Float64"  Name="Displacement"  NumberOfComponents="3" format="ascii">1.0129304883586200e-04 1.4903081770128120e-04 0.0000000000000000e+00  1.2957831239887973e-04 5.4150553086880645e-05 0.0000000000000000e+00  1.4037896324877824e-04 6.8067667765948559e-05 0.0000000000000000e+00  1.3644635022995574e-04 7.9958102357920692e-05 0.0000000000000000e+00  1.3031867104878699e-04 9.1503496151979305e-05 0.0000000000000000e+00  1.2251354804415396e-04 1.0093207721511577e-04 0.0000000000000000e+00  1.1262909596589297e-04 1.0595457915934885e-04 0.0000000000000000e+00  9.8084323606293121e-05 1.0491142310643305e-04 0.0000000000000000e+00  8.5377800541221779e-05 1.0092357485369822e-04 0.0000000000000000e+00  7.8418960274038231e-05 1.0094116224405633e-04 0.0000000000000000e+00  6.8158628952803393e-05 9.9834574272688248e-05 0.0000000000000000e+00  6.5550313715124334e-05 9.0514198540067437e-05 0.0000000000000000e+00  6.2532171840940488e-05 8.7479221578162821e-05 0.0000000000000000e+00  5.9662300072392734e-05 7.8819921349815132e-05 0.0000000000000000e+00  5.2512477366469387e-05 7.2069023185326154e-05 0.0000000000000000e+00  4.3151943457288640e-05 6.6255661902599538e-05 0.0000000000000000e+00  2.9840124697042821e-05 6.1389974646362699e-05 0.0000000000000000e+00  2.1339202934915424e-05 5.7509292307892519e-05 0.0000000000000000e+00  1.3511265247782024e-05 5.4553453097113605e-05 0.0000000000000000e+00  9.5319984589768819e-06 5.5485001592832489e-05 0.0000000000000000e+00  5.4453876475036875e-06 5.8102471287467413e-05 0.0000000000000000e+00  3.7677142473148054e-06 5.3889317299955087e-05 0.0000000000000000e+00  7.6345433697000901e-06 4.7235686024648843e-05 0.0000000000000000e+00  1.3323680451964163e-05 4.0507438149860554e-05 0.0000000000000000e+00  2.2263857059211578e-05 3.9973138342788869e-05 0.0000000000000000e+00  2.8451557111647101e-05 4.2156909900607152e-05 0.0000000000000000e+00  3.8770519364210225e-05 7.1328957093367090e-05 0.0000000000000000e+00  1.4722939820356867e-04 7.7306368545280633e-05 0.0000000000000000e+00  1.4761355806859825e-04 5.6978901897932587e-05 0.0000000000000000e+00  1.3764390305976437e-04 6.8474261950340361e-05 0.0000000000000000e+00  1.3049380322612740e-04 8.3486516360024529e-05 0.0000000000000000e+00  1.2389262408276156e-04 9.4469204112134875e-05 0.0000000000000000e+00  1.1812808127761985e-04 1.0579677430925227e-04 0.0000000000000000e+00  1.0793795475872096e-04 1.1348221224198279e-04 0.0000000000000000e+00  9.7429319505454691e-05 1.1217399943381954e-04 0.0000000000000000e+00  8.7715462641156338e-05 1.0719612340342708e-04 0.0000000000000000e+00  7.8977361987323891e-05 1.0503408515720610e-04 0.0000000000000000e+00  7.5240066047065635e-05 1.0227961248311402e-04 0.0000000000000000e+00  7.0951714993549195e-05 9.2365805248265570e-05 0.0000000000000000e+00  6.8721984543718831e-05 8.7618723597920705e-05 0.0000000000000000e+00  6.5310663411922764e-05 8.1698899294631807e-05 0.0000000000000000e+00  5.6510159908206508e-05 7.7903736738387530e-05 0.0000000000000000e+00  4.5377615122243556e-05 7.3004820636220823e-05 0.0000000000000000e+00  3.3383845018346741e-05 6.7837290979668631e-05 0.0000000000000000e+00  2.3511603174404133e-05 6.3336968681632376e-05 0.0000000000000000e+00  1.3728182850911834e-05 5.8180202819128546e-05 0.0000000000000000e+00  8.9455208114309860e-06 5.8552988073455531e-05 0.0000000000000000e+00  6.9422886527941352e-06 5.9511426334111799e-05 0.0000000000000000e+00  6.8557369795684521e-06 5.2744680934147537e-05 0.0000000000000000e+00  1.1527457385913208e-05 4.5027532028513178e-05 0.0000000000000000e+00  1.4913787121948162e-05 3.8000199138475189e-05 0.0000000000000000e+00  1.7114774596896274e-05 3.8464099872079238e-05 0.0000000000000000e+00  1.8017946277836996e-05 4.5022227203407994e-05 0.0000000000000000e+00  2.0245223625361088e-05 5.9470748384283287e-05 0.0000000000000000e+00  1.4694374734736470e-04 4.3202607977418211e-05 0.0000000000000000e+00  1.4932836997090480e-04 6.0410257067246971e-05 0.0000000000000000e+00  1.3612036091098525e-04 7.4706816170609896e-05 0.0000000000000000e+00  1.2489741067194784e-04 8.7919112756139505e-05 0.0000000000000000e+00  1.1935253517470745e-04 9.7628223723012238e-05 0.0000000000000000e+00  1.1376356903578173e-04 1.0884769162745378e-04 0.0000000000000000e+00  1.0551734655357688e-04 1.1925524986692581e-04 0.0000000000000000e+00  9.5950634576262673e-05 1.1806375711052083e-04 0.0000000000000000e+00  8.7102927727505515e-05 1.1306322272447936e-04 0.0000000000000000e+00  8.4415501767512289e-05 1.0806679243026113e-04 0.0000000000000000e+00  8.5001754273860840e-05 1.0333489994613981e-04 0.0000000000000000e+00  8.0956120054289252e-05 9.4460212247418859e-05 0.0000000000000000e+00  7.5812041035739272e-05 8.9349114631068053e-05 0.0000000000000000e+00  6.7301894660505712e-05 8.5971256158648310e-05 0.0000000000000000e+00  5.6847312651334679e-05 8.3835849472297015e-05 0.0000000000000000e+00  4.6662015157012176e-05 7.9285493210211588e-05 0.0000000000000000e+00  3.6444197846756839e-05 7.4398904030894593e-05 0.0000000000000000e+00  2.6918185813984898e-05 6.9861503792921674e-05 0.0000000000000000e+00  1.6498347709772115e-05 6.4044076783394827e-05 0.0000000000000000e+00  9.4409647301455834e-06 6.0424238386987589e-05 0.0000000000000000e+00  9.5642069960335393e-06 5.8029743490649054e-05 0.0000000000000000e+00  1.0400854437894277e-05 5.0754607934799434e-05 0.0000000000000000e+00  1.4841132772638642e-05 4.1655456870997435e-05 0.0000000000000000e+00  1.5256346448350803e-05 3.7366729437765271e-05 0.0000000000000000e+00  1.5196994997647136e-05 3.8795593343389968e-05 0.0000000000000000e+00  1.4037118386954351e-05 4.6090837831263190e-05 0.0000000000000000e+00  1.4092733970639688e-05 5.2171173971217761e-05 0.0000000000000000e+00  1.3398076302386584e-04 9.3789512125218138e-06 0.0000000000000000e+00  1.3293683172097446e-04 6.1787303738791981e-05 0.0000000000000000e+00  1.2258142975383191e-04 8.2439181370981982e-05 0.0000000000000000e+00  1.1605529376085845e-04 9.1848396131203258e-05 0.0000000000000000e+00  1.1182657309721730e-04 9.7920365920589888e-05 0.0000000000000000e+00  1.0880564360295068e-04 1.1051247377137826e-04 0.0000000000000000e+00  1.0333984819651335e-04 1.2503456495309239e-04 0.0000000000000000e+00  9.8055104578130791e-05 1.2454609814664672e-04 0.0000000000000000e+00  9.1916981666467941e-05 1.1752802170077191e-04 0.0000000000000000e+00  9.0681140916898601e-05 1.0625109125772563e-04 0.0000000000000000e+00  9.1619826548804164e-05 1.0368140662435018e-04 0.0000000000000000e+00  8.2614447857086003e-05 9.8722444548540335e-05 0.0000000000000000e+00  7.7814097091624722e-05 9.2499322387472739e-05 0.0000000000000000e+00  7.0250130771640627e-05 9.2224875364634785e-05 0.0000000000000000e+00  6.1397921133681343e-05 8.8051390071553198e-05 0.0000000000000000e+00  4.9976413319682351e-05 8.4582997493006025e-05 0.0000000000000000e+00  3.8776281796481579e-05 8.2836081131182736e-05 0.0000000000000000e+00  2.8275038032027332e-05 7.5189779302256666e-05 0.0000000000000000e+00  1.9012694768315325e-05 7.0309865944560341e-05 0.0000000000000000e+00  1.2919909330889317e-05 6.3094981425752586e-05 0.0000000000000000e+00  1.2338459027661150e-05 5.5769583844331768e-05 0.0000000000000000e+00  1.4295933868388488e-05 4.8580062338808621e-05 0.0000000000000000e+00  1.6021423999473580e-05 4.0434739139901675e-05 0.0000000000000000e+00  1.5854320682623306e-05 3.5603591007792975e-05 0.0000000000000000e+00  1.5893509951447787e-05 3.8543641536102718e-05 0.0000000000000000e+00  1.4854149422205473e-05 4.6209695633286066e-05 0.0000000000000000e+00  1.4550930540009103e-05 5.0579527564972222e-05 0.0000000000000000e+00  5.0452651635662582e-05 -6.6688837282784184e-05 0.0000000000000000e+00  9.2321928259665734e-05 6.2208771338271532e-05 0.0000000000000000e+00  1.0705030246973968e-04 8.3468751246418244e-05 0.0000000000000000e+00  1.0800973632161069e-04 9.2872827612111643e-05 0.0000000000000000e+00  1.0389340781357801e-04 9.9170853050313738e-05 0.0000000000000000e+00  9.9354060781117686e-05 1.1415719362443618e-04 0.0000000000000000e+00  9.9109394892779991e-05 1.2795878523340362e-04 0.0000000000000000e+00  1.0119634081310388e-04 1.2745355075365004e-04 0.0000000000000000e+00  1.0036370074535373e-04 1.2031843696545725e-04 0.0000000000000000e+00  9.8427832504386823e-05 1.0762241243855551e-04 0.0000000000000000e+00  9.1179900357850791e-05 1.0705954148705178e-04 0.0000000000000000e+00  8.6720655868318690e-05 1.0477636017926127e-04 0.0000000000000000e+00  7.7400618277742938e-05 9.6575670803383465e-05 0.0000000000000000e+00  7.2538604598688567e-05 9.5710715681965314e-05 0.0000000000000000e+00  6.5469468342340109e-05 9.2799694932428866e-05 0.0000000000000000e+00  5.3124469990021559e-05 9.3742027467097835e-05 0.0000000000000000e+00  4.0739420067909687e-05 8.9601887178276018e-05 0.0000000000000000e+00  3.2515123318888382e-05 8.0286580718882063e-05 0.0000000000000000e+00  2.3777868664287389e-05 7.5510632298486966e-05 0.0000000000000000e+00  2.0509030815465125e-05 6.5856162160823412e-05 0.0000000000000000e+00  1.8144636992642018e-05 5.4962491441154352e-05 0.0000000000000000e+00  1.9539979239560794e-05 4.8023707273855481e-05 0.0000000000000000e+00  1.9472296154289405e-05 4.0112570229802618e-05 0.0000000000000000e+00  1.6122219136437074e-05 3.5939036795262071e-05 0.0000000000000000e+00  1.3409256242247090e-05 3.9064438611374391e-05 0.0000000000000000e+00  1.1413815554535793e-05 4.7037675688278783e-05 0.0000000000000000e+00  1.1587056223541899e-05 5.1338842585538391e-05 0.0000000000000000e+00  </DataArray> 
</PointData> 
</Piece>
</UnstructuredGrid>
</VTKFile>