<?xml version="1.0"?>
<VTKFile type="UnstructuredGrid"  version="0.1"  >
<UnstructuredGrid>
<Piece  NumberOfPoints="135" NumberOfCells="208">
<Points>
<DataArray  type="Float64"  NumberOfComponents="3"  format="ascii">1 1 0  1.076923076923077 1 0  1.153846153846154 1 0  1.230769230769231 1 0  1.307692307692308 1 0  1.384615384615385 1 0  1.461538461538462 1 0  1.538461538461538 1 0  1.615384615384615 1 0  1.692307692307692 1 0  1.769230769230769 1 0  1.846153846153846 1 0  1.923076923076923 1 0  2 1 0  2.076923076923077 1 0  2.153846153846154 1 0  2.230769230769231 1 0  2.307692307692307 1 0  2.384615384615385 1 0  2.461538461538462 1 0  2.538461538461538 1 0  2.615384615384615 1 0  2.692307692307693 1 0  2.769230769230769 1 0  2.846153846153846 1 0  2.923076923076923 1 0  3 1 0  1 1.0625 0  1.076923076923077 1.0625 0  1.153846153846154 1.0625 0  1.230769230769231 1.0625 0  1.307692307692308 1.0625 0  1.384615384615385 1.0625 0  1.461538461538462 1.0625 0  1.538461538461538 1.0625 0  1.615384615384615 1.0625 0  1.692307692307692 1.0625 0  1.769230769230769 1.0625 0  1.846153846153846 1.0625 0  1.923076923076923 1.0625 0  2 1.0625 0  2.076923076923077 1.0625 0  2.153846153846154 1.0625 0  2.230769230769231 1.0625 0  2.307692307692307 1.0625 0  2.384615384615385 1.0625 0  2.461538461538462 1.0625 0  2.538461538461538 1.0625 0  2.615384615384615 1.0625 0  2.692307692307693 1.0625 0  2.769230769230769 1.0625 0  2.846153846153846 1.0625 0  2.923076923076923 1.0625 0  3 1.0625 0  1 1.125 0  1.076923076923077 1.125 0  1.153846153846154 1.125 0  1.230769230769231 1.125 0  1.307692307692308 1.125 0  1.384615384615385 1.125 0  1.461538461538462 1.125 0  1.538461538461538 1.125 0  1.615384615384615 1.125 0  1.692307692307692 1.125 0  1.769230769230769 1.125 0  1.846153846153846 1.125 0  1.923076923076923 1.125 0  2 1.125 0  2.076923076923077 1.125 0  2.153846153846154 1.125 0  2.230769230769231 1.125 0  2.307692307692307 1.125 0  2.384615384615385 1.125 0  2.461538461538462 1.125 0  2.538461538461538 1.125 0  2.615384615384615 1.125 0  2.692307692307693 1.125 0  2.769230769230769 1.125 0  2.846153846153846 1.125 0  2.923076923076923 1.125 0  3 1.125 0  1 1.1875 0  1.076923076923077 1.1875 0  1.153846153846154 1.1875 0  1.230769230769231 1.1875 0  1.307692307692308 1.1875 0  1.384615384615385 1.1875 0  1.461538461538462 1.1875 0  1.538461538461538 1.1875 0  1.615384615384615 1.1875 0  1.692307692307692 1.1875 0  1.769230769230769 1.1875 0  1.846153846153846 1.1875 0  1.923076923076923 1.1875 0  2 1.1875 0  2.076923076923077 1.1875 0  2.153846153846154 1.1875 0  2.230769230769231 1.1875 0  2.307692307692307 1.1875 0  2.384615384615385 1.1875 0  2.461538461538462 1.1875 0  2.538461538461538 1.1875 0  2.615384615384615 1.1875 0  2.692307692307693 1.1875 0  2.769230769230769 1.1875 0  2.846153846153846 1.1875 0  2.923076923076923 1.1875 0  3 1.1875 0  1 1.25 0  1.076923076923077 1.25 0  1.153846153846154 1.25 0  1.230769230769231 1.25 0  1.307692307692308 1.25 0  1.384615384615385 1.25 0  1.461538461538462 1.25 0  1.538461538461538 1.25 0  1.615384615384615 1.25 0  1.692307692307692 1.25 0  1.769230769230769 1.25 0  1.846153846153846 1.25 0  1.923076923076923 1.25 0  2 1.25 0  2.076923076923077 1.25 0  2.153846153846154 1.25 0  2.230769230769231 1.25 0  2.307692307692307 1.25 0  2.384615384615385 1.25 0  2.461538461538462 1.25 0  2.538461538461538 1.25 0  2.615384615384615 1.25 0  2.692307692307693 1.25 0  2.769230769230769 1.25 0  2.846153846153846 1.25 0  2.923076923076923 1.25 0  3 1.25 0  </DataArray>
</Points>
<Cells>
<DataArray  type="UInt32"  Name="connectivity"  format="ascii">0 1 28  0 27 28  1 2 29  1 28 29  2 3 30  2 29 30  3 4 31  3 30 31  4 5 32  4 31 32  5 6 33  5 32 33  6 7 34  6 33 34  7 8 35  7 34 35  8 9 36  8 35 36  9 10 37  9 36 37  10 11 38  10 37 38  11 12 39  11 38 39  12 13 40  12 39 40  13 14 41  13 40 41  14 15 42  14 41 42  15 16 43  15 42 43  16 17 44  16 43 44  17 18 45  17 44 45  18 19 46  18 45 46  19 20 47  19 46 47  20 21 48  20 47 48  21 22 49  21 48 49  22 23 50  22 49 50  23 24 51  23 50 51  24 25 52  24 51 52  25 26 53  25 52 53  27 28 55  27 54 55  28 29 56  28 55 56  29 30 57  29 56 57  30 31 58  30 57 58  31 32 59  31 58 59  32 33 60  32 59 60  33 34 61  33 60 61  34 35 62  34 61 62  35 36 63  35 62 63  36 37 64  36 63 64  37 38 65  37 64 65  38 39 66  38 65 66  39 40 67  39 66 67  40 41 68  40 67 68  41 42 69  41 68 69  42 43 70  42 69 70  43 44 71  43 70 71  44 45 72  44 71 72  45 46 73  45 72 73  46 47 74  46 73 74  47 48 75  47 74 75  48 49 76  48 75 76  49 50 77  49 76 77  50 51 78  50 77 78  51 52 79  51 78 79  52 53 80  52 79 80  54 55 82  54 81 82  55 56 83  55 82 83  56 57 84  56 83 84  57 58 85  57 84 85  58 59 86  58 85 86  59 60 87  59 86 87  60 61 88  60 87 88  61 62 89  61 88 89  62 63 90  62 89 90  63 64 91  63 90 91  64 65 92  64 91 92  65 66 93  65 92 93  66 67 94  66 93 94  67 68 95  67 94 95  68 69 96  68 95 96  69 70 97  69 96 97  70 71 98  70 97 98  71 72 99  71 98 99  72 73 100  72 99 100  73 74 101  73 100 101  74 75 102  74 101 102  75 76 103  75 102 103  76 77 104  76 103 104  77 78 105  77 104 105  78 79 106  78 105 106  79 80 107  79 106 107  81 82 109  81 108 109  82 83 110  82 109 110  83 84 111  83 110 111  84 85 112  84 111 112  85 86 113  85 112 113  86 87 114  86 113 114  87 88 115  87 114 115  88 89 116  88 115 116  89 90 117  89 116 117  90 91 118  90 117 118  91 92 119  91 118 119  92 93 120  92 119 120  93 94 121  93 120 121  94 95 122  94 121 122  95 96 123  95 122 123  96 97 124  96 123 124  97 98 125  97 124 125  98 99 126  98 125 126  99 100 127  99 126 127  100 101 128  100 127 128  101 102 129  101 128 129  102 103 130  102 129 130  103 104 131  103 130 131  104 105 132  104 131 132  105 106 133  105 132 133  106 107 134  106 133 134  </DataArray>
<DataArray  type="UInt32"  Name="offsets"  format="ascii">3 6 9 12 15 18 21 24 27 30 33 36 39 42 45 48 51 54 57 60 63 66 69 72 75 78 81 84 87 90 93 96 99 102 105 108 111 114 117 120 123 126 129 132 135 138 141 144 147 150 153 156 159 162 165 168 171 174 177 180 183 186 189 192 195 198 201 204 207 210 213 216 219 222 225 228 231 234 237 240 243 246 249 252 255 258 261 264 267 270 273 276 279 282 285 288 291 294 297 300 303 306 309 312 315 318 321 324 327 330 333 336 339 342 345 348 351 354 357 360 363 366 369 372 375 378 381 384 387 390 393 396 399 402 405 408 411 414 417 420 423 426 429 432 435 438 441 444 447 450 453 456 459 462 465 468 471 474 477 480 483 486 489 492 495 498 501 504 507 510 513 516 519 522 525 528 531 534 537 540 543 546 549 552 555 558 561 564 567 570 573 576 579 582 585 588 591 594 597 600 603 606 609 612 615 618 621 624 </DataArray>
<DataArray  type="UInt8"  Name="types"  format="ascii">5 5 5 5 5 5 5 5 5 5 5 5 5 5 5 5 5 5 5 5 5 5 5 5 5 5 5 5 5 5 5 5 5 5 5 5 5 5 5 5 5 5 5 5 5 5 5 5 5 5 5 5 5 5 5 5 5 5 5 5 5 5 5 5 5 5 5 5 5 5 5 5 5 5 5 5 5 5 5 5 5 5 5 5 5 5 5 5 5 5 5 5 5 5 5 5 5 5 5 5 5 5 5 5 5 5 5 5 5 5 5 5 5 5 5 5 5 5 5 5 5 5 5 5 5 5 5 5 5 5 5 5 5 5 5 5 5 5 5 5 5 5 5 5 5 5 5 5 5 5 5 5 5 5 5 5 5 5 5 5 5 5 5 5 5 5 5 5 5 5 5 5 5 5 5 5 5 5 5 5 5 5 5 5 5 5 5 5 5 5 5 5 5 5 5 5 5 5 5 5 5 5 5 5 5 5 5 5 </DataArray>
</Cells>
<PointData  Vectors="Displacement"> 
<DataArray  type="Float64"  Name="Displacement"  NumberOfComponents="3" format="ascii">1.6437083963417309e-04 1.6845770756258646e-04 0.0000000000000000e+00  2.0370316727886967e-04 6.4300196515550283e-05 0.0000000000000000e+00  2.1333570797140878e-04 9.1948676135223827e-05 0.0000000000000000e+00  2.0492575889252115e-04 1.0959391219927494e-04 0.0000000000000000e+00  1.9162084442711874e-04 1.2356707247188317e-04 0.0000000000000000e+00  1.7800650375595793e-04 1.2742719408937654e-04 0.0000000000000000e+00  1.6427580509167889e-04 1.2639684560904600e-04 0.0000000000000000e+00  1.5559957209267030e-04 1.2340895296234522e-04 0.0000000000000000e+00  1.4783124786550315e-04 1.2410775049410228e-04 0.0000000000000000e+00  1.3972607208636605e-04 1.2814005160651786e-04 0.0000000000000000e+00  1.2676706026435973e-04 1.3130417768098297e-04 0.0000000000000000e+00  1.1334156575995100e-04 1.2728203707441574e-04 0.0000000000000000e+00  1.0374671616108937e-04 1.1681653628099933e-04 0.0000000000000000e+00  1.0031670962332444e-04 1.0933442162451221e-04 0.0000000000000000e+00  1.0005438168192947e-04 1.1383140865140810e-04 0.0000000000000000e+00  9.2909708550251946e-05 1.0532112215379546e-04 0.0000000000000000e+00  8.9997146606632541e-05 9.6319289764577388e-05 0.0000000000000000e+00  8.5534625184774838e-05 9.1065645412519364e-05 0.0000000000000000e+00  8.1082150318611475e-05 7.9772656397067730e-05 0.0000000000000000e+00  7.5165943219864995e-05 7.0263267491468823e-05 0.0000000000000000e+00  6.9562591814709363e-05 6.4526151456276271e-05 0.0000000000000000e+00  6.4268207788013089e-05 6.3418825025070663e-05 0.0000000000000000e+00  5.9238681084261740e-05 6.0469757950039842e-05 0.0000000000000000e+00  5.7405597127730397e-05 5.8477784990727635e-05 0.0000000000000000e+00  5.7185662284549368e-05 5.9935049704394051e-05 0.0000000000000000e+00  6.0939204028756435e-05 6.1889709536897976e-05 0.0000000000000000e+00  7.5475182947885958e-05 1.0858040063214572e-04 0.0000000000000000e+00  2.1362804376510929e-04 8.1980525204911961e-05 0.0000000000000000e+00  2.1031422754267125e-04 6.8771432783785232e-05 0.0000000000000000e+00  2.0031944349453869e-04 9.2025565276637470e-05 0.0000000000000000e+00  1.9266911986419726e-04 1.1373233149368152e-04 0.0000000000000000e+00  1.8362376881537063e-04 1.2792781748440762e-04 0.0000000000000000e+00  1.7445439097897434e-04 1.3234055012257927e-04 0.0000000000000000e+00  1.6563290585816577e-04 1.3182506455960158e-04 0.0000000000000000e+00  1.5561812483389013e-04 1.2858447887370087e-04 0.0000000000000000e+00  1.4423563326468203e-04 1.2844797145793413e-04 0.0000000000000000e+00  1.3592696715570619e-04 1.3369815082035322e-04 0.0000000000000000e+00  1.2771723175212117e-04 1.3794403020471230e-04 0.0000000000000000e+00  1.1959282964937061e-04 1.3301541569329467e-04 0.0000000000000000e+00  1.1105556965038495e-04 1.2205638772452482e-04 0.0000000000000000e+00  1.0262665016451812e-04 1.1224076708267625e-04 0.0000000000000000e+00  9.9317205042474019e-05 1.1178148155065489e-04 0.0000000000000000e+00  1.0188189289812403e-04 1.0772409141138191e-04 0.0000000000000000e+00  9.7744631343485715e-05 9.7447867490806447e-05 0.0000000000000000e+00  9.2304951873864170e-05 9.4399520142899904e-05 0.0000000000000000e+00  8.7021880658243221e-05 8.1639413855810958e-05 0.0000000000000000e+00  8.2239658208780987e-05 7.4546580453794690e-05 0.0000000000000000e+00  7.4944301690770530e-05 6.8707799581230387e-05 0.0000000000000000e+00  6.8068844234452704e-05 6.5052804474749024e-05 0.0000000000000000e+00  6.3210280704586487e-05 6.2883134071518564e-05 0.0000000000000000e+00  5.8183921052997010e-05 5.9399969483814095e-05 0.0000000000000000e+00  5.2219634470557950e-05 6.1068483737676982e-05 0.0000000000000000e+00  4.7922881612867453e-05 6.7341170182306525e-05 0.0000000000000000e+00  5.0757768044514803e-05 8.6491888479432207e-05 0.0000000000000000e+00  1.9669317061131914e-04 4.5783593784407221e-05 0.0000000000000000e+00  1.9975798522057207e-04 7.2576493541924320e-05 0.0000000000000000e+00  1.8925523977416256e-04 9.6290500835555213e-05 0.0000000000000000e+00  1.8103329360027705e-04 1.1699381371007898e-04 0.0000000000000000e+00  1.7365066751534792e-04 1.3081935394831928e-04 0.0000000000000000e+00  1.6941216773704639e-04 1.3523702640185804e-04 0.0000000000000000e+00  1.6268988525076962e-04 1.3540881375223357e-04 0.0000000000000000e+00  1.5471416492274904e-04 1.3527143076765496e-04 0.0000000000000000e+00  1.4472995681469187e-04 1.3555063289894667e-04 0.0000000000000000e+00  1.3533488998360220e-04 1.3745810877733257e-04 0.0000000000000000e+00  1.2928405762879455e-04 1.4156437041724568e-04 0.0000000000000000e+00  1.2435228477017957e-04 1.3676361684859169e-04 0.0000000000000000e+00  1.1757367926931161e-04 1.2621141896607943e-04 0.0000000000000000e+00  1.1064418904601195e-04 1.1805546893081195e-04 0.0000000000000000e+00  1.0451756233220232e-04 1.0807084203396893e-04 0.0000000000000000e+00  1.0474143809631238e-04 1.0632195756791919e-04 0.0000000000000000e+00  1.0065871594935755e-04 1.0038330362986484e-04 0.0000000000000000e+00  9.8062407323034863e-05 9.7659965171786319e-05 0.0000000000000000e+00  9.2238185512714586e-05 8.6548761056690960e-05 0.0000000000000000e+00  8.6805991284376422e-05 7.6213349702013627e-05 0.0000000000000000e+00  8.1637390760367848e-05 7.1489614723142892e-05 0.0000000000000000e+00  7.4999246985703351e-05 6.8481679586559035e-05 0.0000000000000000e+00  6.5298095504585628e-05 6.5548401332183635e-05 0.0000000000000000e+00  5.5826946021257428e-05 6.3431433599384746e-05 0.0000000000000000e+00  4.7831774180441254e-05 6.4686912630647470e-05 0.0000000000000000e+00  4.3462270273997964e-05 6.9397876571172893e-05 0.0000000000000000e+00  4.5870748301508702e-05 7.6965794014808160e-05 0.0000000000000000e+00  1.7229008397315256e-04 1.3379199560524957e-05 0.0000000000000000e+00  1.7653702146228401e-04 7.1696874473436886e-05 0.0000000000000000e+00  1.7096614609903946e-04 1.0203987697672560e-04 0.0000000000000000e+00  1.6762167774428136e-04 1.2004254435904555e-04 0.0000000000000000e+00  1.6596872641588196e-04 1.3263463885419881e-04 0.0000000000000000e+00  1.6387691903405884e-04 1.3693457726398950e-04 0.0000000000000000e+00  1.5904797689172525e-04 1.3848335057955457e-04 0.0000000000000000e+00  1.5277974046223812e-04 1.4091999449393673e-04 0.0000000000000000e+00  1.4400346581814336e-04 1.4221265517133771e-04 0.0000000000000000e+00  1.3722458798479028e-04 1.4202045233531802e-04 0.0000000000000000e+00  1.3249009550475889e-04 1.4466465255394970e-04 0.0000000000000000e+00  1.2947280235212901e-04 1.4010917776615021e-04 0.0000000000000000e+00  1.2373303168271060e-04 1.2976264147341080e-04 0.0000000000000000e+00  1.1865759635906499e-04 1.2166985636245803e-04 0.0000000000000000e+00  1.1208971323542305e-04 1.1033304301508471e-04 0.0000000000000000e+00  1.0726280215793977e-04 1.0711697103392519e-04 0.0000000000000000e+00  1.0317010505125672e-04 1.0363822267484819e-04 0.0000000000000000e+00  1.0136080233207401e-04 9.8828341626305474e-05 0.0000000000000000e+00  9.9196564867171162e-05 9.0886477992124556e-05 0.0000000000000000e+00  9.2888587030462959e-05 7.9183074215075346e-05 0.0000000000000000e+00  8.5573932362583612e-05 7.5601426772624764e-05 0.0000000000000000e+00  7.4272230742513133e-05 7.2812761544646388e-05 0.0000000000000000e+00  6.5499746751004963e-05 7.0148889089273483e-05 0.0000000000000000e+00  5.6962406709240885e-05 6.8559570271555163e-05 0.0000000000000000e+00  4.9469171626493301e-05 6.7313003874842366e-05 0.0000000000000000e+00  4.4390937313373239e-05 7.0976683518958670e-05 0.0000000000000000e+00  4.3227072789450463e-05 7.4893401287483836e-05 0.0000000000000000e+00  8.3598328731741232e-05 -7.0084788813150976e-05 0.0000000000000000e+00  1.3156604072361294e-04 7.0173735092744495e-05 0.0000000000000000e+00  1.4918501424461558e-04 1.0080854805086415e-04 0.0000000000000000e+00  1.5482384222522655e-04 1.2043654844822193e-04 0.0000000000000000e+00  1.5890650675238693e-04 1.3180253172894574e-04 0.0000000000000000e+00  1.5926125117657656e-04 1.3851282303259060e-04 0.0000000000000000e+00  1.5642607302837765e-04 1.4169120906396489e-04 0.0000000000000000e+00  1.4964845224245017e-04 1.4506059204620009e-04 0.0000000000000000e+00  1.4391877671799354e-04 1.4702336237615215e-04 0.0000000000000000e+00  1.3749594271179454e-04 1.4534772931340366e-04 0.0000000000000000e+00  1.3425046682093129e-04 1.4580990511714746e-04 0.0000000000000000e+00  1.3407999764905611e-04 1.4230026662578302e-04 0.0000000000000000e+00  1.3141198524994465e-04 1.3265814190626909e-04 0.0000000000000000e+00  1.2505235668141014e-04 1.2439631684602235e-04 0.0000000000000000e+00  1.1754337857974714e-04 1.1550489498542439e-04 0.0000000000000000e+00  1.1011089362785776e-04 1.0905168714871163e-04 0.0000000000000000e+00  1.0723097656300203e-04 1.0559308199818812e-04 0.0000000000000000e+00  1.0678051928274300e-04 9.8032049629153068e-05 0.0000000000000000e+00  1.0514366805068262e-04 9.3182967586194574e-05 0.0000000000000000e+00  9.8619284715138509e-05 8.3928629614199007e-05 0.0000000000000000e+00  8.6398521788178605e-05 8.1586447268332588e-05 0.0000000000000000e+00  7.5744361982887389e-05 7.7477732574494085e-05 0.0000000000000000e+00  6.6353378889001750e-05 7.5342324483011625e-05 0.0000000000000000e+00  5.7690578611839903e-05 7.1830225350490203e-05 0.0000000000000000e+00  4.9129268396894374e-05 7.0276985395816691e-05 0.0000000000000000e+00  4.2878446026204535e-05 7.3478736509817506e-05 0.0000000000000000e+00  4.2520595381983406e-05 7.3229339586786655e-05 0.0000000000000000e+00  </DataArray> 
</PointData> 
</Piece>
</UnstructuredGrid>
</VTKFile>