<?xml version="1.0"?>
<VTKFile type="UnstructuredGrid"  version="0.1"  >
<UnstructuredGrid>
<Piece  NumberOfPoints="135" NumberOfCells="208">
<Points>
<DataArray  type="Float64"  NumberOfComponents="3"  format="ascii">1 1 0  1.076923076923077 1 0  1.153846153846154 1 0  1.230769230769231 1 0  1.307692307692308 1 0  1.384615384615385 1 0  1.461538461538462 1 0  1.538461538461538 1 0  1.615384615384615 1 0  1.692307692307692 1 0  1.769230769230769 1 0  1.846153846153846 1 0  1.923076923076923 1 0  2 1 0  2.076923076923077 1 0  2.153846153846154 1 0  2.230769230769231 1 0  2.307692307692307 1 0  2.384615384615385 1 0  2.461538461538462 1 0  2.538461538461538 1 0  2.615384615384615 1 0  2.692307692307693 1 0  2.769230769230769 1 0  2.846153846153846 1 0  2.923076923076923 1 0  3 1 0  1 1.0625 0  1.076923076923077 1.0625 0  1.153846153846154 1.0625 0  1.230769230769231 1.0625 0  1.307692307692308 1.0625 0  1.384615384615385 1.0625 0  1.461538461538462 1.0625 0  1.538461538461538 1.0625 0  1.615384615384615 1.0625 0  1.692307692307692 1.0625 0  1.769230769230769 1.0625 0  1.846153846153846 1.0625 0  1.923076923076923 1.0625 0  2 1.0625 0  2.076923076923077 1.0625 0  2.153846153846154 1.0625 0  2.230769230769231 1.0625 0  2.307692307692307 1.0625 0  2.384615384615385 1.0625 0  2.461538461538462 1.0625 0  2.538461538461538 1.0625 0  2.615384615384615 1.0625 0  2.692307692307693 1.0625 0  2.769230769230769 1.0625 0  2.846153846153846 1.0625 0  2.923076923076923 1.0625 0  3 1.0625 0  1 1.125 0  1.076923076923077 1.125 0  1.153846153846154 1.125 0  1.230769230769231 1.125 0  1.307692307692308 1.125 0  1.384615384615385 1.125 0  1.461538461538462 1.125 0  1.538461538461538 1.125 0  1.615384615384615 1.125 0  1.692307692307692 1.125 0  1.769230769230769 1.125 0  1.846153846153846 1.125 0  1.923076923076923 1.125 0  2 1.125 0  2.076923076923077 1.125 0  2.153846153846154 1.125 0  2.230769230769231 1.125 0  2.307692307692307 1.125 0  2.384615384615385 1.125 0  2.461538461538462 1.125 0  2.538461538461538 1.125 0  2.615384615384615 1.125 0  2.692307692307693 1.125 0  2.769230769230769 1.125 0  2.846153846153846 1.125 0  2.923076923076923 1.125 0  3 1.125 0  1 1.1875 0  1.076923076923077 1.1875 0  1.153846153846154 1.1875 0  1.230769230769231 1.1875 0  1.307692307692308 1.1875 0  1.384615384615385 1.1875 0  1.461538461538462 1.1875 0  1.538461538461538 1.1875 0  1.615384615384615 1.1875 0  1.692307692307692 1.1875 0  1.769230769230769 1.1875 0  1.846153846153846 1.1875 0  1.923076923076923 1.1875 0  2 1.1875 0  2.076923076923077 1.1875 0  2.153846153846154 1.1875 0  2.230769230769231 1.1875 0  2.307692307692307 1.1875 0  2.384615384615385 1.1875 0  2.461538461538462 1.1875 0  2.538461538461538 1.1875 0  2.615384615384615 1.1875 0  2.692307692307693 1.1875 0  2.769230769230769 1.1875 0  2.846153846153846 1.1875 0  2.923076923076923 1.1875 0  3 1.1875 0  1 1.25 0  1.076923076923077 1.25 0  1.153846153846154 1.25 0  1.230769230769231 1.25 0  1.307692307692308 1.25 0  1.384615384615385 1.25 0  1.461538461538462 1.25 0  1.538461538461538 1.25 0  1.615384615384615 1.25 0  1.692307692307692 1.25 0  1.769230769230769 1.25 0  1.846153846153846 1.25 0  1.923076923076923 1.25 0  2 1.25 0  2.076923076923077 1.25 0  2.153846153846154 1.25 0  2.230769230769231 1.25 0  2.307692307692307 1.25 0  2.384615384615385 1.25 0  2.461538461538462 1.25 0  2.538461538461538 1.25 0  2.615384615384615 1.25 0  2.692307692307693 1.25 0  2.769230769230769 1.25 0  2.846153846153846 1.25 0  2.923076923076923 1.25 0  3 1.25 0  </DataArray>
</Points>
<Cells>
<DataArray  type="UInt32"  Name="connectivity"  format="ascii">0 1 28  0 27 28  1 2 29  1 28 29  2 3 30  2 29 30  3 4 31  3 30 31  4 5 32  4 31 32  5 6 33  5 32 33  6 7 34  6 33 34  7 8 35  7 34 35  8 9 36  8 35 36  9 10 37  9 36 37  10 11 38  10 37 38  11 12 39  11 38 39  12 13 40  12 39 40  13 14 41  13 40 41  14 15 42  14 41 42  15 16 43  15 42 43  16 17 44  16 43 44  17 18 45  17 44 45  18 19 46  18 45 46  19 20 47  19 46 47  20 21 48  20 47 48  21 22 49  21 48 49  22 23 50  22 49 50  23 24 51  23 50 51  24 25 52  24 51 52  25 26 53  25 52 53  27 28 55  27 54 55  28 29 56  28 55 56  29 30 57  29 56 57  30 31 58  30 57 58  31 32 59  31 58 59  32 33 60  32 59 60  33 34 61  33 60 61  34 35 62  34 61 62  35 36 63  35 62 63  36 37 64  36 63 64  37 38 65  37 64 65  38 39 66  38 65 66  39 40 67  39 66 67  40 41 68  40 67 68  41 42 69  41 68 69  42 43 70  42 69 70  43 44 71  43 70 71  44 45 72  44 71 72  45 46 73  45 72 73  46 47 74  46 73 74  47 48 75  47 74 75  48 49 76  48 75 76  49 50 77  49 76 77  50 51 78  50 77 78  51 52 79  51 78 79  52 53 80  52 79 80  54 55 82  54 81 82  55 56 83  55 82 83  56 57 84  56 83 84  57 58 85  57 84 85  58 59 86  58 85 86  59 60 87  59 86 87  60 61 88  60 87 88  61 62 89  61 88 89  62 63 90  62 89 90  63 64 91  63 90 91  64 65 92  64 91 92  65 66 93  65 92 93  66 67 94  66 93 94  67 68 95  67 94 95  68 69 96  68 95 96  69 70 97  69 96 97  70 71 98  70 97 98  71 72 99  71 98 99  72 73 100  72 99 100  73 74 101  73 100 101  74 75 102  74 101 102  75 76 103  75 102 103  76 77 104  76 103 104  77 78 105  77 104 105  78 79 106  78 105 106  79 80 107  79 106 107  81 82 109  81 108 109  82 83 110  82 109 110  83 84 111  83 110 111  84 85 112  84 111 112  85 86 113  85 112 113  86 87 114  86 113 114  87 88 115  87 114 115  88 89 116  88 115 116  89 90 117  89 116 117  90 91 118  90 117 118  91 92 119  91 118 119  92 93 120  92 119 120  93 94 121  93 120 121  94 95 122  94 121 122  95 96 123  95 122 123  96 97 124  96 123 124  97 98 125  97 124 125  98 99 126  98 125 126  99 100 127  99 126 127  100 101 128  100 127 128  101 102 129  101 128 129  102 103 130  102 129 130  103 104 131  103 130 131  104 105 132  104 131 132  105 106 133  105 132 133  106 107 134  106 133 134  </DataArray>
<DataArray  type="UInt32"  Name="offsets"  format="ascii">3 6 9 12 15 18 21 24 27 30 33 36 39 42 45 48 51 54 57 60 63 66 69 72 75 78 81 84 87 90 93 96 99 102 105 108 111 114 117 120 123 126 129 132 135 138 141 144 147 150 153 156 159 162 165 168 171 174 177 180 183 186 189 192 195 198 201 204 207 210 213 216 219 222 225 228 231 234 237 240 243 246 249 252 255 258 261 264 267 270 273 276 279 282 285 288 291 294 297 300 303 306 309 312 315 318 321 324 327 330 333 336 339 342 345 348 351 354 357 360 363 366 369 372 375 378 381 384 387 390 393 396 399 402 405 408 411 414 417 420 423 426 429 432 435 438 441 444 447 450 453 456 459 462 465 468 471 474 477 480 483 486 489 492 495 498 501 504 507 510 513 516 519 522 525 528 531 534 537 540 543 546 549 552 555 558 561 564 567 570 573 576 579 582 585 588 591 594 597 600 603 606 609 612 615 618 621 624 </DataArray>
<DataArray  type="UInt8"  Name="types"  format="ascii">5 5 5 5 5 5 5 5 5 5 5 5 5 5 5 5 5 5 5 5 5 5 5 5 5 5 5 5 5 5 5 5 5 5 5 5 5 5 5 5 5 5 5 5 5 5 5 5 5 5 5 5 5 5 5 5 5 5 5 5 5 5 5 5 5 5 5 5 5 5 5 5 5 5 5 5 5 5 5 5 5 5 5 5 5 5 5 5 5 5 5 5 5 5 5 5 5 5 5 5 5 5 5 5 5 5 5 5 5 5 5 5 5 5 5 5 5 5 5 5 5 5 5 5 5 5 5 5 5 5 5 5 5 5 5 5 5 5 5 5 5 5 5 5 5 5 5 5 5 5 5 5 5 5 5 5 5 5 5 5 5 5 5 5 5 5 5 5 5 5 5 5 5 5 5 5 5 5 5 5 5 5 5 5 5 5 5 5 5 5 5 5 5 5 5 5 5 5 5 5 5 5 5 5 5 5 5 5 </DataArray>
</Cells>
<PointData  Vectors="Displacement"> 
<DataArray  type="Float64"  Name="Displacement"  NumberOfComponents="3" format="ascii">1.8348368782112633e-04 1.7527132206974342e-04 0.0000000000000000e+00  2.2737868505423426e-04 6.5673059949185921e-05 0.0000000000000000e+00  2.3821373156133923e-04 9.4924005884403155e-05 0.0000000000000000e+00  2.2978585295612450e-04 1.1423762795529582e-04 0.0000000000000000e+00  2.1646140633108736e-04 1.2741670500474194e-04 0.0000000000000000e+00  2.0272517721346418e-04 1.3594918406666106e-04 0.0000000000000000e+00  1.8697673629606567e-04 1.3816242012747230e-04 0.0000000000000000e+00  1.7454021559970551e-04 1.3782834414889021e-04 0.0000000000000000e+00  1.6348037128436382e-04 1.3661755752821024e-04 0.0000000000000000e+00  1.5630204820681854e-04 1.3408169302082387e-04 0.0000000000000000e+00  1.4921439328415654e-04 1.3567554961856074e-04 0.0000000000000000e+00  1.4366717939053882e-04 1.4008705936025123e-04 0.0000000000000000e+00  1.3693890627921812e-04 1.4086577109867848e-04 0.0000000000000000e+00  1.2975315274885841e-04 1.2828172509723342e-04 0.0000000000000000e+00  1.2481021899480273e-04 1.1426506587670424e-04 0.0000000000000000e+00  1.1813326978404039e-04 1.0131073061717995e-04 0.0000000000000000e+00  1.1038261265374699e-04 1.0111942143759194e-04 0.0000000000000000e+00  1.0278105332225748e-04 8.8698748446940217e-05 0.0000000000000000e+00  1.0556120238478080e-04 8.2104899731510675e-05 0.0000000000000000e+00  9.8691012047952677e-05 8.0652703724060917e-05 0.0000000000000000e+00  9.3991675713988223e-05 7.6089358329489734e-05 0.0000000000000000e+00  9.1005607430825027e-05 7.2594881231371095e-05 0.0000000000000000e+00  9.3852342366342384e-05 7.1438654134282022e-05 0.0000000000000000e+00  9.1963260717881597e-05 6.8482645633260178e-05 0.0000000000000000e+00  9.2217866644968857e-05 7.0281300497869711e-05 0.0000000000000000e+00  9.8081376241613343e-05 7.1723049983581501e-05 0.0000000000000000e+00  1.1116887743768974e-04 1.1395971413090552e-04 0.0000000000000000e+00  2.3791233188646306e-04 8.4192793141742099e-05 0.0000000000000000e+00  2.3550636773541291e-04 7.0165927922361280e-05 0.0000000000000000e+00  2.2413903049649174e-04 9.4995365824486231e-05 0.0000000000000000e+00  2.1510740144320599e-04 1.1672966578704020e-04 0.0000000000000000e+00  2.0625049589865265e-04 1.3237527797741130e-04 0.0000000000000000e+00  1.9508260684897411e-04 1.4161952360646269e-04 0.0000000000000000e+00  1.8297754924782229e-04 1.4498117869560936e-04 0.0000000000000000e+00  1.7156958172975234e-04 1.4363019390108595e-04 0.0000000000000000e+00  1.6362854318176411e-04 1.4074152187232262e-04 0.0000000000000000e+00  1.5553695852111544e-04 1.3832627323482051e-04 0.0000000000000000e+00  1.4918165759497551e-04 1.3922416232807228e-04 0.0000000000000000e+00  1.4356534432908351e-04 1.4124015103436158e-04 0.0000000000000000e+00  1.4151369524098844e-04 1.4092431804534555e-04 0.0000000000000000e+00  1.3883658984871429e-04 1.2996740309082540e-04 0.0000000000000000e+00  1.3480357299164709e-04 1.1703137316562592e-04 0.0000000000000000e+00  1.2419003971747872e-04 1.0690368636323796e-04 0.0000000000000000e+00  1.1503750127265076e-04 1.0276560754441791e-04 0.0000000000000000e+00  1.1014256425592182e-04 9.0326401232936689e-05 0.0000000000000000e+00  1.0545543907253099e-04 8.1736639775969756e-05 0.0000000000000000e+00  1.0309779559507426e-04 8.3470435668334618e-05 0.0000000000000000e+00  9.8260017742524665e-05 7.7157945214480586e-05 0.0000000000000000e+00  9.6631573826742257e-05 7.4007404115951719e-05 0.0000000000000000e+00  9.3972724084315321e-05 7.0388301186458170e-05 0.0000000000000000e+00  9.4554336245492837e-05 7.0045443209050526e-05 0.0000000000000000e+00  9.3156668243729192e-05 7.0142050837998315e-05 0.0000000000000000e+00  9.0776945830545151e-05 7.7433029306583705e-05 0.0000000000000000e+00  9.0074437886723523e-05 9.2045253736311764e-05 0.0000000000000000e+00  2.2105693934964618e-04 4.5968213401486475e-05 0.0000000000000000e+00  2.2424062232700081e-04 7.5421139279035321e-05 0.0000000000000000e+00  2.1321036087777122e-04 1.0029100901086488e-04 0.0000000000000000e+00  2.0330261881614141e-04 1.2217474975746636e-04 0.0000000000000000e+00  1.9521734218089223e-04 1.3803910375068381e-04 0.0000000000000000e+00  1.8639116822248835e-04 1.4773301215799750e-04 0.0000000000000000e+00  1.7732537293967511e-04 1.5149431732329227e-04 0.0000000000000000e+00  1.6962481996293956e-04 1.4960953853963450e-04 0.0000000000000000e+00  1.6306059050210286e-04 1.4561741080006420e-04 0.0000000000000000e+00  1.5685607362109474e-04 1.4314664417640086e-04 0.0000000000000000e+00  1.5061076625799854e-04 1.4294772936075735e-04 0.0000000000000000e+00  1.4698007811945427e-04 1.4247145333766913e-04 0.0000000000000000e+00  1.4595634644619219e-04 1.3944274358128212e-04 0.0000000000000000e+00  1.4600973430991759e-04 1.3023763688141450e-04 0.0000000000000000e+00  1.4167712996506713e-04 1.2104141088604804e-04 0.0000000000000000e+00  1.3013247792179343e-04 1.1514574393716581e-04 0.0000000000000000e+00  1.2115450354128099e-04 1.0570019593753427e-04 0.0000000000000000e+00  1.1390653193368814e-04 9.4626130140697682e-05 0.0000000000000000e+00  1.0823656300955025e-04 8.5478300553080562e-05 0.0000000000000000e+00  1.0526904430832524e-04 8.4250291638918637e-05 0.0000000000000000e+00  1.0161748872855086e-04 8.0410516249356290e-05 0.0000000000000000e+00  9.9676653250820813e-05 7.6037314129326125e-05 0.0000000000000000e+00  9.4996786377469106e-05 7.1542060333021619e-05 0.0000000000000000e+00  9.4183454236806293e-05 6.9668851324080483e-05 0.0000000000000000e+00  9.1667009417790266e-05 7.2110186478045027e-05 0.0000000000000000e+00  9.1156409063789453e-05 7.9680314442036370e-05 0.0000000000000000e+00  9.0880573164246490e-05 8.5521091155600900e-05 0.0000000000000000e+00  1.9198827132658206e-04 1.1803117407013939e-05 0.0000000000000000e+00  1.9803904638538580e-04 7.4271562540721356e-05 0.0000000000000000e+00  1.9188866667450716e-04 1.0680599125685762e-04 0.0000000000000000e+00  1.8685691812949173e-04 1.2627877616615721e-04 0.0000000000000000e+00  1.8383234146077593e-04 1.4107917699037029e-04 0.0000000000000000e+00  1.7948220314715094e-04 1.5288002558559824e-04 0.0000000000000000e+00  1.7456231200685331e-04 1.5616318115555783e-04 0.0000000000000000e+00  1.6894257631783546e-04 1.5370921541574389e-04 0.0000000000000000e+00  1.6394993662824205e-04 1.4924968623508753e-04 0.0000000000000000e+00  1.5822596574858100e-04 1.4849520327880249e-04 0.0000000000000000e+00  1.5251505225570439e-04 1.4672336028601600e-04 0.0000000000000000e+00  1.5023976933458194e-04 1.4292749321025020e-04 0.0000000000000000e+00  1.4940067782543741e-04 1.3851031692737782e-04 0.0000000000000000e+00  1.4955280357503858e-04 1.2897802165472402e-04 0.0000000000000000e+00  1.4559543882839692e-04 1.2540503300659508e-04 0.0000000000000000e+00  1.3828256581623687e-04 1.2194378736452725e-04 0.0000000000000000e+00  1.3170859878851066e-04 1.1155728031788861e-04 0.0000000000000000e+00  1.2137727243518849e-04 9.9580003335077893e-05 0.0000000000000000e+00  1.1341312268550917e-04 9.0699740860906240e-05 0.0000000000000000e+00  1.0572016425662428e-04 8.6431920147767184e-05 0.0000000000000000e+00  1.0048615213375786e-04 8.3726011336925530e-05 0.0000000000000000e+00  1.0037745966985270e-04 7.8068177867244410e-05 0.0000000000000000e+00  9.7905756677491530e-05 7.2888772526110530e-05 0.0000000000000000e+00  9.5804120235610320e-05 7.0866492967281629e-05 0.0000000000000000e+00  9.2508659003672571e-05 7.3675926119285375e-05 0.0000000000000000e+00  9.0497214342919090e-05 8.1481700166949024e-05 0.0000000000000000e+00  8.8366177027016907e-05 8.6504643602290234e-05 0.0000000000000000e+00  9.8921520694167969e-05 -7.4070969047465387e-05 0.0000000000000000e+00  1.4886420856391567e-04 7.2390016948023107e-05 0.0000000000000000e+00  1.6641951707998574e-04 1.0692319121491024e-04 0.0000000000000000e+00  1.7119364179152835e-04 1.2560618999361579e-04 0.0000000000000000e+00  1.7257115494176054e-04 1.4191836908136805e-04 0.0000000000000000e+00  1.7212672646969493e-04 1.5423245044266770e-04 0.0000000000000000e+00  1.7301801899324558e-04 1.5801365489712072e-04 0.0000000000000000e+00  1.6957496076028117e-04 1.5572971028400846e-04 0.0000000000000000e+00  1.6499401123626050e-04 1.5293490288997020e-04 0.0000000000000000e+00  1.5964880305314370e-04 1.5196022481323793e-04 0.0000000000000000e+00  1.5654626372996875e-04 1.4857939273096974e-04 0.0000000000000000e+00  1.5453262928715516e-04 1.4334854759716340e-04 0.0000000000000000e+00  1.5378278733330997e-04 1.3818073004009978e-04 0.0000000000000000e+00  1.5084056579321240e-04 1.2841264564857546e-04 0.0000000000000000e+00  1.4637208042648771e-04 1.2801531122958164e-04 0.0000000000000000e+00  1.4519582885762501e-04 1.2461774721288975e-04 0.0000000000000000e+00  1.4012891406325325e-04 1.1512709320708491e-04 0.0000000000000000e+00  1.3193996468880770e-04 1.0646196651210709e-04 0.0000000000000000e+00  1.1845741395987112e-04 9.6718705928871895e-05 0.0000000000000000e+00  1.0753744881775480e-04 9.1374481637298630e-05 0.0000000000000000e+00  1.0360761497089750e-04 8.5113143610639625e-05 0.0000000000000000e+00  1.0153652430446743e-04 7.7113836671423839e-05 0.0000000000000000e+00  1.0094312634673093e-04 7.3367832912349230e-05 0.0000000000000000e+00  9.5718675969213730e-05 7.2930580930228125e-05 0.0000000000000000e+00  8.9324959261792287e-05 7.4877145712484892e-05 0.0000000000000000e+00  8.5681690999754522e-05 8.3067330338642504e-05 0.0000000000000000e+00  8.3312100916722330e-05 8.6867540229644771e-05 0.0000000000000000e+00  </DataArray> 
</PointData> 
</Piece>
</UnstructuredGrid>
</VTKFile>