<?xml version="1.0"?>
<VTKFile type="UnstructuredGrid"  version="0.1"  >
<UnstructuredGrid>
<Piece  NumberOfPoints="135" NumberOfCells="208">
<Points>
<DataArray  type="Float64"  NumberOfComponents="3"  format="ascii">1 1 0  1.076923076923077 1 0  1.153846153846154 1 0  1.230769230769231 1 0  1.307692307692308 1 0  1.384615384615385 1 0  1.461538461538462 1 0  1.538461538461538 1 0  1.615384615384615 1 0  1.692307692307692 1 0  1.769230769230769 1 0  1.846153846153846 1 0  1.923076923076923 1 0  2 1 0  2.076923076923077 1 0  2.153846153846154 1 0  2.230769230769231 1 0  2.307692307692307 1 0  2.384615384615385 1 0  2.461538461538462 1 0  2.538461538461538 1 0  2.615384615384615 1 0  2.692307692307693 1 0  2.769230769230769 1 0  2.846153846153846 1 0  2.923076923076923 1 0  3 1 0  1 1.0625 0  1.076923076923077 1.0625 0  1.153846153846154 1.0625 0  1.230769230769231 1.0625 0  1.307692307692308 1.0625 0  1.384615384615385 1.0625 0  1.461538461538462 1.0625 0  1.538461538461538 1.0625 0  1.615384615384615 1.0625 0  1.692307692307692 1.0625 0  1.769230769230769 1.0625 0  1.846153846153846 1.0625 0  1.923076923076923 1.0625 0  2 1.0625 0  2.076923076923077 1.0625 0  2.153846153846154 1.0625 0  2.230769230769231 1.0625 0  2.307692307692307 1.0625 0  2.384615384615385 1.0625 0  2.461538461538462 1.0625 0  2.538461538461538 1.0625 0  2.615384615384615 1.0625 0  2.692307692307693 1.0625 0  2.769230769230769 1.0625 0  2.846153846153846 1.0625 0  2.923076923076923 1.0625 0  3 1.0625 0  1 1.125 0  1.076923076923077 1.125 0  1.153846153846154 1.125 0  1.230769230769231 1.125 0  1.307692307692308 1.125 0  1.384615384615385 1.125 0  1.461538461538462 1.125 0  1.538461538461538 1.125 0  1.615384615384615 1.125 0  1.692307692307692 1.125 0  1.769230769230769 1.125 0  1.846153846153846 1.125 0  1.923076923076923 1.125 0  2 1.125 0  2.076923076923077 1.125 0  2.153846153846154 1.125 0  2.230769230769231 1.125 0  2.307692307692307 1.125 0  2.384615384615385 1.125 0  2.461538461538462 1.125 0  2.538461538461538 1.125 0  2.615384615384615 1.125 0  2.692307692307693 1.125 0  2.769230769230769 1.125 0  2.846153846153846 1.125 0  2.923076923076923 1.125 0  3 1.125 0  1 1.1875 0  1.076923076923077 1.1875 0  1.153846153846154 1.1875 0  1.230769230769231 1.1875 0  1.307692307692308 1.1875 0  1.384615384615385 1.1875 0  1.461538461538462 1.1875 0  1.538461538461538 1.1875 0  1.615384615384615 1.1875 0  1.692307692307692 1.1875 0  1.769230769230769 1.1875 0  1.846153846153846 1.1875 0  1.923076923076923 1.1875 0  2 1.1875 0  2.076923076923077 1.1875 0  2.153846153846154 1.1875 0  2.230769230769231 1.1875 0  2.307692307692307 1.1875 0  2.384615384615385 1.1875 0  2.461538461538462 1.1875 0  2.538461538461538 1.1875 0  2.615384615384615 1.1875 0  2.692307692307693 1.1875 0  2.769230769230769 1.1875 0  2.846153846153846 1.1875 0  2.923076923076923 1.1875 0  3 1.1875 0  1 1.25 0  1.076923076923077 1.25 0  1.153846153846154 1.25 0  1.230769230769231 1.25 0  1.307692307692308 1.25 0  1.384615384615385 1.25 0  1.461538461538462 1.25 0  1.538461538461538 1.25 0  1.615384615384615 1.25 0  1.692307692307692 1.25 0  1.769230769230769 1.25 0  1.846153846153846 1.25 0  1.923076923076923 1.25 0  2 1.25 0  2.076923076923077 1.25 0  2.153846153846154 1.25 0  2.230769230769231 1.25 0  2.307692307692307 1.25 0  2.384615384615385 1.25 0  2.461538461538462 1.25 0  2.538461538461538 1.25 0  2.615384615384615 1.25 0  2.692307692307693 1.25 0  2.769230769230769 1.25 0  2.846153846153846 1.25 0  2.923076923076923 1.25 0  3 1.25 0  </DataArray>
</Points>
<Cells>
<DataArray  type="UInt32"  Name="connectivity"  format="ascii">0 1 28  0 27 28  1 2 29  1 28 29  2 3 30  2 29 30  3 4 31  3 30 31  4 5 32  4 31 32  5 6 33  5 32 33  6 7 34  6 33 34  7 8 35  7 34 35  8 9 36  8 35 36  9 10 37  9 36 37  10 11 38  10 37 38  11 12 39  11 38 39  12 13 40  12 39 40  13 14 41  13 40 41  14 15 42  14 41 42  15 16 43  15 42 43  16 17 44  16 43 44  17 18 45  17 44 45  18 19 46  18 45 46  19 20 47  19 46 47  20 21 48  20 47 48  21 22 49  21 48 49  22 23 50  22 49 50  23 24 51  23 50 51  24 25 52  24 51 52  25 26 53  25 52 53  27 28 55  27 54 55  28 29 56  28 55 56  29 30 57  29 56 57  30 31 58  30 57 58  31 32 59  31 58 59  32 33 60  32 59 60  33 34 61  33 60 61  34 35 62  34 61 62  35 36 63  35 62 63  36 37 64  36 63 64  37 38 65  37 64 65  38 39 66  38 65 66  39 40 67  39 66 67  40 41 68  40 67 68  41 42 69  41 68 69  42 43 70  42 69 70  43 44 71  43 70 71  44 45 72  44 71 72  45 46 73  45 72 73  46 47 74  46 73 74  47 48 75  47 74 75  48 49 76  48 75 76  49 50 77  49 76 77  50 51 78  50 77 78  51 52 79  51 78 79  52 53 80  52 79 80  54 55 82  54 81 82  55 56 83  55 82 83  56 57 84  56 83 84  57 58 85  57 84 85  58 59 86  58 85 86  59 60 87  59 86 87  60 61 88  60 87 88  61 62 89  61 88 89  62 63 90  62 89 90  63 64 91  63 90 91  64 65 92  64 91 92  65 66 93  65 92 93  66 67 94  66 93 94  67 68 95  67 94 95  68 69 96  68 95 96  69 70 97  69 96 97  70 71 98  70 97 98  71 72 99  71 98 99  72 73 100  72 99 100  73 74 101  73 100 101  74 75 102  74 101 102  75 76 103  75 102 103  76 77 104  76 103 104  77 78 105  77 104 105  78 79 106  78 105 106  79 80 107  79 106 107  81 82 109  81 108 109  82 83 110  82 109 110  83 84 111  83 110 111  84 85 112  84 111 112  85 86 113  85 112 113  86 87 114  86 113 114  87 88 115  87 114 115  88 89 116  88 115 116  89 90 117  89 116 117  90 91 118  90 117 118  91 92 119  91 118 119  92 93 120  92 119 120  93 94 121  93 120 121  94 95 122  94 121 122  95 96 123  95 122 123  96 97 124  96 123 124  97 98 125  97 124 125  98 99 126  98 125 126  99 100 127  99 126 127  100 101 128  100 127 128  101 102 129  101 128 129  102 103 130  102 129 130  103 104 131  103 130 131  104 105 132  104 131 132  105 106 133  105 132 133  106 107 134  106 133 134  </DataArray>
<DataArray  type="UInt32"  Name="offsets"  format="ascii">3 6 9 12 15 18 21 24 27 30 33 36 39 42 45 48 51 54 57 60 63 66 69 72 75 78 81 84 87 90 93 96 99 102 105 108 111 114 117 120 123 126 129 132 135 138 141 144 147 150 153 156 159 162 165 168 171 174 177 180 183 186 189 192 195 198 201 204 207 210 213 216 219 222 225 228 231 234 237 240 243 246 249 252 255 258 261 264 267 270 273 276 279 282 285 288 291 294 297 300 303 306 309 312 315 318 321 324 327 330 333 336 339 342 345 348 351 354 357 360 363 366 369 372 375 378 381 384 387 390 393 396 399 402 405 408 411 414 417 420 423 426 429 432 435 438 441 444 447 450 453 456 459 462 465 468 471 474 477 480 483 486 489 492 495 498 501 504 507 510 513 516 519 522 525 528 531 534 537 540 543 546 549 552 555 558 561 564 567 570 573 576 579 582 585 588 591 594 597 600 603 606 609 612 615 618 621 624 </DataArray>
<DataArray  type="UInt8"  Name="types"  format="ascii">5 5 5 5 5 5 5 5 5 5 5 5 5 5 5 5 5 5 5 5 5 5 5 5 5 5 5 5 5 5 5 5 5 5 5 5 5 5 5 5 5 5 5 5 5 5 5 5 5 5 5 5 5 5 5 5 5 5 5 5 5 5 5 5 5 5 5 5 5 5 5 5 5 5 5 5 5 5 5 5 5 5 5 5 5 5 5 5 5 5 5 5 5 5 5 5 5 5 5 5 5 5 5 5 5 5 5 5 5 5 5 5 5 5 5 5 5 5 5 5 5 5 5 5 5 5 5 5 5 5 5 5 5 5 5 5 5 5 5 5 5 5 5 5 5 5 5 5 5 5 5 5 5 5 5 5 5 5 5 5 5 5 5 5 5 5 5 5 5 5 5 5 5 5 5 5 5 5 5 5 5 5 5 5 5 5 5 5 5 5 5 5 5 5 5 5 5 5 5 5 5 5 5 5 5 5 5 5 </DataArray>
</Cells>
<PointData  Vectors="Displacement"> 
<DataArray  type="Float64"  Name="Displacement"  NumberOfComponents="3" format="ascii">4.5191721530810579e-04 1.7196110150463178e-04 0.0000000000000000e+00  4.9806473577662809e-04 7.0011652383868923e-05 0.0000000000000000e+00  5.0908870443912128e-04 1.1843566957176591e-04 0.0000000000000000e+00  4.9743510034423147e-04 1.5093628337988234e-04 0.0000000000000000e+00  4.8412832088900521e-04 1.7322438580761216e-04 0.0000000000000000e+00  4.7131553835251359e-04 1.9341062255047049e-04 0.0000000000000000e+00  4.5876540771771574e-04 2.0917555378114732e-04 0.0000000000000000e+00  4.4692430619994330e-04 2.1911357950935774e-04 0.0000000000000000e+00  4.3418065030758214e-04 2.2449783383768294e-04 0.0000000000000000e+00  4.2405641923392386e-04 2.2410877787412177e-04 0.0000000000000000e+00  4.1891806426560017e-04 2.1904062280397079e-04 0.0000000000000000e+00  4.1504255986288507e-04 2.1391488266238242e-04 0.0000000000000000e+00  4.0846140372816076e-04 2.1053848663414720e-04 0.0000000000000000e+00  4.0438185063495596e-04 2.0341263553601320e-04 0.0000000000000000e+00  4.0026264679907461e-04 1.9320592863173109e-04 0.0000000000000000e+00  3.9504300792795672e-04 1.8503684628749204e-04 0.0000000000000000e+00  3.9197410534702956e-04 1.7540667846468203e-04 0.0000000000000000e+00  3.9178357422793640e-04 1.6605600289880718e-04 0.0000000000000000e+00  3.9258500911708207e-04 1.5996763328936161e-04 0.0000000000000000e+00  3.9034071133891288e-04 1.5449923937793761e-04 0.0000000000000000e+00  3.9205139699708303e-04 1.4942173935069065e-04 0.0000000000000000e+00  3.9379143404657255e-04 1.4774430514258804e-04 0.0000000000000000e+00  3.9583088668957795e-04 1.4865257437489000e-04 0.0000000000000000e+00  3.9780605035266275e-04 1.5323941970768885e-04 0.0000000000000000e+00  3.9907605731614586e-04 1.5615275833842564e-04 0.0000000000000000e+00  4.0502865328354243e-04 1.5512937046458051e-04 0.0000000000000000e+00  4.2510892955201592e-04 2.1477481536366600e-04 0.0000000000000000e+00  4.9248742281437412e-04 7.1988368537190636e-05 0.0000000000000000e+00  4.9124182671360459e-04 7.6579618325951421e-05 0.0000000000000000e+00  4.8036340743460009e-04 1.1881530879490376e-04 0.0000000000000000e+00  4.7371217750499670e-04 1.5439612852117783e-04 0.0000000000000000e+00  4.6450604392713352e-04 1.7824042536717521e-04 0.0000000000000000e+00  4.5499829317874216e-04 1.9853401304064644e-04 0.0000000000000000e+00  4.4611204073311586e-04 2.1380610434286281e-04 0.0000000000000000e+00  4.3839205819147883e-04 2.2473486517222112e-04 0.0000000000000000e+00  4.3013006588176454e-04 2.2944669859906503e-04 0.0000000000000000e+00  4.2586082452062703e-04 2.2637593792361563e-04 0.0000000000000000e+00  4.2203975471621669e-04 2.2140137977814755e-04 0.0000000000000000e+00  4.1744017028992370e-04 2.1709507312831129e-04 0.0000000000000000e+00  4.1395630533066108e-04 2.1278532086368865e-04 0.0000000000000000e+00  4.1101355681582170e-04 2.0503777953842761e-04 0.0000000000000000e+00  4.0683548573913720e-04 1.9674354772514010e-04 0.0000000000000000e+00  4.0247764133239240e-04 1.8648454593898350e-04 0.0000000000000000e+00  3.9981116308377432e-04 1.7578809094368459e-04 0.0000000000000000e+00  3.9885901000387517e-04 1.6619791523972101e-04 0.0000000000000000e+00  3.9685815635709929e-04 1.6078347758108116e-04 0.0000000000000000e+00  3.9547188976584623e-04 1.5504223417858195e-04 0.0000000000000000e+00  3.9642107000175639e-04 1.4911406578430934e-04 0.0000000000000000e+00  3.9558349123869211e-04 1.4683000303785762e-04 0.0000000000000000e+00  3.9675797681489120e-04 1.4863281714938160e-04 0.0000000000000000e+00  3.9748816716907181e-04 1.5303115698005811e-04 0.0000000000000000e+00  3.9880117602400142e-04 1.5584204312077795e-04 0.0000000000000000e+00  3.9391958550764156e-04 1.6351783401039591e-04 0.0000000000000000e+00  3.9450713437745301e-04 1.8517989043679805e-04 0.0000000000000000e+00  4.6011298019554261e-04 3.1051674937374373e-05 0.0000000000000000e+00  4.6591329964583813e-04 8.2291160395137820e-05 0.0000000000000000e+00  4.5598755083437229e-04 1.2331431559101482e-04 0.0000000000000000e+00  4.4959678569046654e-04 1.5814713610296012e-04 0.0000000000000000e+00  4.4394107948319330e-04 1.8348231780191432e-04 0.0000000000000000e+00  4.3785314192306882e-04 2.0277430345932258e-04 0.0000000000000000e+00  4.3326787794264950e-04 2.1680290358574829e-04 0.0000000000000000e+00  4.2962244012494159e-04 2.2892969249726673e-04 0.0000000000000000e+00  4.2610422599151604e-04 2.3108072066465647e-04 0.0000000000000000e+00  4.2540643153157846e-04 2.2860195410560438e-04 0.0000000000000000e+00  4.2284990151031420e-04 2.2339051555923131e-04 0.0000000000000000e+00  4.2040245346423053e-04 2.2006663087841861e-04 0.0000000000000000e+00  4.1885808054439177e-04 2.1492350542752630e-04 0.0000000000000000e+00  4.1600974950246861e-04 2.0776713253172304e-04 0.0000000000000000e+00  4.1290428471844350e-04 1.9918854777101997e-04 0.0000000000000000e+00  4.1054804055979158e-04 1.8921546367921935e-04 0.0000000000000000e+00  4.0498028006865646e-04 1.7768448361485026e-04 0.0000000000000000e+00  4.0305793806404242e-04 1.6844168177541647e-04 0.0000000000000000e+00  4.0106045952135051e-04 1.6230164933534984e-04 0.0000000000000000e+00  3.9961074614432499e-04 1.5643539296823517e-04 0.0000000000000000e+00  3.9916141122076922e-04 1.4945553626337583e-04 0.0000000000000000e+00  3.9918801614456808e-04 1.4741225938115997e-04 0.0000000000000000e+00  4.0093052364922898e-04 1.4966079836804531e-04 0.0000000000000000e+00  3.9934150411959730e-04 1.5362706911470168e-04 0.0000000000000000e+00  3.9809737592459232e-04 1.5934714912395879e-04 0.0000000000000000e+00  3.9251517955832992e-04 1.6845581804421968e-04 0.0000000000000000e+00  3.9110011943417649e-04 1.7602694962362287e-04 0.0000000000000000e+00  4.1337917269267165e-04 -7.7553937866879310e-06 0.0000000000000000e+00  4.2404152769475627e-04 7.9520568141140468e-05 0.0000000000000000e+00  4.2203773600028323e-04 1.2876162395534493e-04 0.0000000000000000e+00  4.2186779806385239e-04 1.5966189288159940e-04 0.0000000000000000e+00  4.2177685833003200e-04 1.8472035207690748e-04 0.0000000000000000e+00  4.2202028780503816e-04 2.0372843903566394e-04 0.0000000000000000e+00  4.2245792855802680e-04 2.1889002199238311e-04 0.0000000000000000e+00  4.2184394212566907e-04 2.2877540200918589e-04 0.0000000000000000e+00  4.2262720764310244e-04 2.3142987971160462e-04 0.0000000000000000e+00  4.2331687172676512e-04 2.2873088403133250e-04 0.0000000000000000e+00  4.2334820683821408e-04 2.2426625269533534e-04 0.0000000000000000e+00  4.2371647811302143e-04 2.2035829329848945e-04 0.0000000000000000e+00  4.2205791470597073e-04 2.1543375004422121e-04 0.0000000000000000e+00  4.2096153320719885e-04 2.0901572841490419e-04 0.0000000000000000e+00  4.1896387288793750e-04 1.9897604482998728e-04 0.0000000000000000e+00  4.1599495634935441e-04 1.9165517127256779e-04 0.0000000000000000e+00  4.0987268682204312e-04 1.8022370674736330e-04 0.0000000000000000e+00  4.0879082222163271e-04 1.6837267955410970e-04 0.0000000000000000e+00  4.0722247821588583e-04 1.6354720851790463e-04 0.0000000000000000e+00  4.0480450785693997e-04 1.5824154271777655e-04 0.0000000000000000e+00  4.0268367654637213e-04 1.4993899639133490e-04 0.0000000000000000e+00  3.9938093777750779e-04 1.4707511719210786e-04 0.0000000000000000e+00  3.9954099417100083e-04 1.4895933388924031e-04 0.0000000000000000e+00  3.9854308389501470e-04 1.5518838180966329e-04 0.0000000000000000e+00  3.9548238225872473e-04 1.6147722177129280e-04 0.0000000000000000e+00  3.9326352200346148e-04 1.7083394490304991e-04 0.0000000000000000e+00  3.9045515080649772e-04 1.7529014332960506e-04 0.0000000000000000e+00  2.9599197586286296e-04 -1.0443482326834572e-04 0.0000000000000000e+00  3.5835472233876689e-04 7.5854256374765719e-05 0.0000000000000000e+00  3.8519135757237997e-04 1.2644117665051695e-04 0.0000000000000000e+00  3.9592953948282354e-04 1.5661319750737870e-04 0.0000000000000000e+00  4.0328416787296662e-04 1.8309216598814019e-04 0.0000000000000000e+00  4.0774710567080075e-04 2.0294221811254263e-04 0.0000000000000000e+00  4.1216744706703716e-04 2.1826929502623336e-04 0.0000000000000000e+00  4.1612208463236362e-04 2.2736608850387508e-04 0.0000000000000000e+00  4.2200001494596478e-04 2.3067145088330319e-04 0.0000000000000000e+00  4.2361886037626303e-04 2.2865268677264264e-04 0.0000000000000000e+00  4.2560356578919570e-04 2.2319022481926928e-04 0.0000000000000000e+00  4.2611981658060547e-04 2.2027212728695290e-04 0.0000000000000000e+00  4.2701524614876857e-04 2.1606008311495374e-04 0.0000000000000000e+00  4.2721865989566523e-04 2.0973761711901045e-04 0.0000000000000000e+00  4.2559647504657655e-04 2.0012451438322678e-04 0.0000000000000000e+00  4.2154171617361943e-04 1.9434039507177527e-04 0.0000000000000000e+00  4.1988290238811302e-04 1.8248691465890234e-04 0.0000000000000000e+00  4.1547105701148488e-04 1.6914810748319917e-04 0.0000000000000000e+00  4.1262782029198662e-04 1.6486968013451010e-04 0.0000000000000000e+00  4.1142246219192492e-04 1.6031400085796010e-04 0.0000000000000000e+00  4.0633724100172362e-04 1.5221509263548219e-04 0.0000000000000000e+00  4.0090595041354003e-04 1.4928278280110639e-04 0.0000000000000000e+00  3.9496470418078403e-04 1.4844893762692732e-04 0.0000000000000000e+00  3.9314588814540761e-04 1.5622579016025373e-04 0.0000000000000000e+00  3.9111932520891258e-04 1.6291002468197396e-04 0.0000000000000000e+00  3.8834091209675130e-04 1.7171519610955871e-04 0.0000000000000000e+00  3.8863655869142373e-04 1.7815143832791277e-04 0.0000000000000000e+00  </DataArray> 
</PointData> 
</Piece>
</UnstructuredGrid>
</VTKFile>