<?xml version="1.0"?>
<VTKFile type="UnstructuredGrid"  version="0.1"  >
<UnstructuredGrid>
<Piece  NumberOfPoints="135" NumberOfCells="208">
<Points>
<DataArray  type="Float64"  NumberOfComponents="3"  format="ascii">1 1 0  1.076923076923077 1 0  1.153846153846154 1 0  1.230769230769231 1 0  1.307692307692308 1 0  1.384615384615385 1 0  1.461538461538462 1 0  1.538461538461538 1 0  1.615384615384615 1 0  1.692307692307692 1 0  1.769230769230769 1 0  1.846153846153846 1 0  1.923076923076923 1 0  2 1 0  2.076923076923077 1 0  2.153846153846154 1 0  2.230769230769231 1 0  2.307692307692307 1 0  2.384615384615385 1 0  2.461538461538462 1 0  2.538461538461538 1 0  2.615384615384615 1 0  2.692307692307693 1 0  2.769230769230769 1 0  2.846153846153846 1 0  2.923076923076923 1 0  3 1 0  1 1.0625 0  1.076923076923077 1.0625 0  1.153846153846154 1.0625 0  1.230769230769231 1.0625 0  1.307692307692308 1.0625 0  1.384615384615385 1.0625 0  1.461538461538462 1.0625 0  1.538461538461538 1.0625 0  1.615384615384615 1.0625 0  1.692307692307692 1.0625 0  1.769230769230769 1.0625 0  1.846153846153846 1.0625 0  1.923076923076923 1.0625 0  2 1.0625 0  2.076923076923077 1.0625 0  2.153846153846154 1.0625 0  2.230769230769231 1.0625 0  2.307692307692307 1.0625 0  2.384615384615385 1.0625 0  2.461538461538462 1.0625 0  2.538461538461538 1.0625 0  2.615384615384615 1.0625 0  2.692307692307693 1.0625 0  2.769230769230769 1.0625 0  2.846153846153846 1.0625 0  2.923076923076923 1.0625 0  3 1.0625 0  1 1.125 0  1.076923076923077 1.125 0  1.153846153846154 1.125 0  1.230769230769231 1.125 0  1.307692307692308 1.125 0  1.384615384615385 1.125 0  1.461538461538462 1.125 0  1.538461538461538 1.125 0  1.615384615384615 1.125 0  1.692307692307692 1.125 0  1.769230769230769 1.125 0  1.846153846153846 1.125 0  1.923076923076923 1.125 0  2 1.125 0  2.076923076923077 1.125 0  2.153846153846154 1.125 0  2.230769230769231 1.125 0  2.307692307692307 1.125 0  2.384615384615385 1.125 0  2.461538461538462 1.125 0  2.538461538461538 1.125 0  2.615384615384615 1.125 0  2.692307692307693 1.125 0  2.769230769230769 1.125 0  2.846153846153846 1.125 0  2.923076923076923 1.125 0  3 1.125 0  1 1.1875 0  1.076923076923077 1.1875 0  1.153846153846154 1.1875 0  1.230769230769231 1.1875 0  1.307692307692308 1.1875 0  1.384615384615385 1.1875 0  1.461538461538462 1.1875 0  1.538461538461538 1.1875 0  1.615384615384615 1.1875 0  1.692307692307692 1.1875 0  1.769230769230769 1.1875 0  1.846153846153846 1.1875 0  1.923076923076923 1.1875 0  2 1.1875 0  2.076923076923077 1.1875 0  2.153846153846154 1.1875 0  2.230769230769231 1.1875 0  2.307692307692307 1.1875 0  2.384615384615385 1.1875 0  2.461538461538462 1.1875 0  2.538461538461538 1.1875 0  2.615384615384615 1.1875 0  2.692307692307693 1.1875 0  2.769230769230769 1.1875 0  2.846153846153846 1.1875 0  2.923076923076923 1.1875 0  3 1.1875 0  1 1.25 0  1.076923076923077 1.25 0  1.153846153846154 1.25 0  1.230769230769231 1.25 0  1.307692307692308 1.25 0  1.384615384615385 1.25 0  1.461538461538462 1.25 0  1.538461538461538 1.25 0  1.615384615384615 1.25 0  1.692307692307692 1.25 0  1.769230769230769 1.25 0  1.846153846153846 1.25 0  1.923076923076923 1.25 0  2 1.25 0  2.076923076923077 1.25 0  2.153846153846154 1.25 0  2.230769230769231 1.25 0  2.307692307692307 1.25 0  2.384615384615385 1.25 0  2.461538461538462 1.25 0  2.538461538461538 1.25 0  2.615384615384615 1.25 0  2.692307692307693 1.25 0  2.769230769230769 1.25 0  2.846153846153846 1.25 0  2.923076923076923 1.25 0  3 1.25 0  </DataArray>
</Points>
<Cells>
<DataArray  type="UInt32"  Name="connectivity"  format="ascii">0 1 28  0 27 28  1 2 29  1 28 29  2 3 30  2 29 30  3 4 31  3 30 31  4 5 32  4 31 32  5 6 33  5 32 33  6 7 34  6 33 34  7 8 35  7 34 35  8 9 36  8 35 36  9 10 37  9 36 37  10 11 38  10 37 38  11 12 39  11 38 39  12 13 40  12 39 40  13 14 41  13 40 41  14 15 42  14 41 42  15 16 43  15 42 43  16 17 44  16 43 44  17 18 45  17 44 45  18 19 46  18 45 46  19 20 47  19 46 47  20 21 48  20 47 48  21 22 49  21 48 49  22 23 50  22 49 50  23 24 51  23 50 51  24 25 52  24 51 52  25 26 53  25 52 53  27 28 55  27 54 55  28 29 56  28 55 56  29 30 57  29 56 57  30 31 58  30 57 58  31 32 59  31 58 59  32 33 60  32 59 60  33 34 61  33 60 61  34 35 62  34 61 62  35 36 63  35 62 63  36 37 64  36 63 64  37 38 65  37 64 65  38 39 66  38 65 66  39 40 67  39 66 67  40 41 68  40 67 68  41 42 69  41 68 69  42 43 70  42 69 70  43 44 71  43 70 71  44 45 72  44 71 72  45 46 73  45 72 73  46 47 74  46 73 74  47 48 75  47 74 75  48 49 76  48 75 76  49 50 77  49 76 77  50 51 78  50 77 78  51 52 79  51 78 79  52 53 80  52 79 80  54 55 82  54 81 82  55 56 83  55 82 83  56 57 84  56 83 84  57 58 85  57 84 85  58 59 86  58 85 86  59 60 87  59 86 87  60 61 88  60 87 88  61 62 89  61 88 89  62 63 90  62 89 90  63 64 91  63 90 91  64 65 92  64 91 92  65 66 93  65 92 93  66 67 94  66 93 94  67 68 95  67 94 95  68 69 96  68 95 96  69 70 97  69 96 97  70 71 98  70 97 98  71 72 99  71 98 99  72 73 100  72 99 100  73 74 101  73 100 101  74 75 102  74 101 102  75 76 103  75 102 103  76 77 104  76 103 104  77 78 105  77 104 105  78 79 106  78 105 106  79 80 107  79 106 107  81 82 109  81 108 109  82 83 110  82 109 110  83 84 111  83 110 111  84 85 112  84 111 112  85 86 113  85 112 113  86 87 114  86 113 114  87 88 115  87 114 115  88 89 116  88 115 116  89 90 117  89 116 117  90 91 118  90 117 118  91 92 119  91 118 119  92 93 120  92 119 120  93 94 121  93 120 121  94 95 122  94 121 122  95 96 123  95 122 123  96 97 124  96 123 124  97 98 125  97 124 125  98 99 126  98 125 126  99 100 127  99 126 127  100 101 128  100 127 128  101 102 129  101 128 129  102 103 130  102 129 130  103 104 131  103 130 131  104 105 132  104 131 132  105 106 133  105 132 133  106 107 134  106 133 134  </DataArray>
<DataArray  type="UInt32"  Name="offsets"  format="ascii">3 6 9 12 15 18 21 24 27 30 33 36 39 42 45 48 51 54 57 60 63 66 69 72 75 78 81 84 87 90 93 96 99 102 105 108 111 114 117 120 123 126 129 132 135 138 141 144 147 150 153 156 159 162 165 168 171 174 177 180 183 186 189 192 195 198 201 204 207 210 213 216 219 222 225 228 231 234 237 240 243 246 249 252 255 258 261 264 267 270 273 276 279 282 285 288 291 294 297 300 303 306 309 312 315 318 321 324 327 330 333 336 339 342 345 348 351 354 357 360 363 366 369 372 375 378 381 384 387 390 393 396 399 402 405 408 411 414 417 420 423 426 429 432 435 438 441 444 447 450 453 456 459 462 465 468 471 474 477 480 483 486 489 492 495 498 501 504 507 510 513 516 519 522 525 528 531 534 537 540 543 546 549 552 555 558 561 564 567 570 573 576 579 582 585 588 591 594 597 600 603 606 609 612 615 618 621 624 </DataArray>
<DataArray  type="UInt8"  Name="types"  format="ascii">5 5 5 5 5 5 5 5 5 5 5 5 5 5 5 5 5 5 5 5 5 5 5 5 5 5 5 5 5 5 5 5 5 5 5 5 5 5 5 5 5 5 5 5 5 5 5 5 5 5 5 5 5 5 5 5 5 5 5 5 5 5 5 5 5 5 5 5 5 5 5 5 5 5 5 5 5 5 5 5 5 5 5 5 5 5 5 5 5 5 5 5 5 5 5 5 5 5 5 5 5 5 5 5 5 5 5 5 5 5 5 5 5 5 5 5 5 5 5 5 5 5 5 5 5 5 5 5 5 5 5 5 5 5 5 5 5 5 5 5 5 5 5 5 5 5 5 5 5 5 5 5 5 5 5 5 5 5 5 5 5 5 5 5 5 5 5 5 5 5 5 5 5 5 5 5 5 5 5 5 5 5 5 5 5 5 5 5 5 5 5 5 5 5 5 5 5 5 5 5 5 5 5 5 5 5 5 5 </DataArray>
</Cells>
<PointData  Vectors="Displacement"> 
<DataArray  type="Float64"  Name="Displacement"  NumberOfComponents="3" format="ascii">1.4473977477076573e-04 1.6131775158544705e-04 0.0000000000000000e+00  1.7546847675257814e-04 6.0760753636669781e-05 0.0000000000000000e+00  1.8410183569978497e-04 8.7771474332533534e-05 0.0000000000000000e+00  1.7351483156540895e-04 1.0176477664055666e-04 0.0000000000000000e+00  1.6287860452515976e-04 1.0928394564788720e-04 0.0000000000000000e+00  1.5503650177196957e-04 1.1283375469696068e-04 0.0000000000000000e+00  1.4960061883051247e-04 1.1932095021724117e-04 0.0000000000000000e+00  1.4301919903450473e-04 1.2447729927211895e-04 0.0000000000000000e+00  1.3398355418598571e-04 1.2967200099053608e-04 0.0000000000000000e+00  1.1970322585407810e-04 1.2551841465706839e-04 0.0000000000000000e+00  1.0739150939810234e-04 1.1157386835916837e-04 0.0000000000000000e+00  9.9555601741638618e-05 1.0519225529047965e-04 0.0000000000000000e+00  9.3673914644255282e-05 1.0138245038953201e-04 0.0000000000000000e+00  8.1404738381119209e-05 9.6684638458658471e-05 0.0000000000000000e+00  7.5464599716414124e-05 9.1597504724947909e-05 0.0000000000000000e+00  6.5730612242138561e-05 9.1436344537633419e-05 0.0000000000000000e+00  6.0562364141402369e-05 8.8495998214125452e-05 0.0000000000000000e+00  5.2297413344098509e-05 8.9232630753945021e-05 0.0000000000000000e+00  4.9006464094927112e-05 8.1666326279809716e-05 0.0000000000000000e+00  4.4440346460832979e-05 6.9807712476078234e-05 0.0000000000000000e+00  4.1443659575640832e-05 5.8220272516679763e-05 0.0000000000000000e+00  3.9011889812712929e-05 5.3540588668348929e-05 0.0000000000000000e+00  3.5930077814888278e-05 5.1967530510193506e-05 0.0000000000000000e+00  3.3758510804824048e-05 5.1290956115797488e-05 0.0000000000000000e+00  3.1183633998692361e-05 5.4034968149360409e-05 0.0000000000000000e+00  3.3272766503868348e-05 4.9720576178527664e-05 0.0000000000000000e+00  4.7698304908238099e-05 9.6524358142495681e-05 0.0000000000000000e+00  1.8568070743893835e-04 8.1422720729456795e-05 0.0000000000000000e+00  1.8552880217104421e-04 6.7085513358922279e-05 0.0000000000000000e+00  1.7434154273982758e-04 9.0235553853838842e-05 0.0000000000000000e+00  1.6630926136995406e-04 1.0639633888312018e-04 0.0000000000000000e+00  1.5773420080667593e-04 1.1533573848502051e-04 0.0000000000000000e+00  1.5009369609548398e-04 1.1858040748274035e-04 0.0000000000000000e+00  1.4385652506682142e-04 1.2392610869800004e-04 0.0000000000000000e+00  1.3906783126964412e-04 1.2953368494662525e-04 0.0000000000000000e+00  1.3352474891755302e-04 1.3641426009116495e-04 0.0000000000000000e+00  1.2614949936873770e-04 1.3398789981997061e-04 0.0000000000000000e+00  1.1555783787374798e-04 1.2154554573659000e-04 0.0000000000000000e+00  1.0498840968475599e-04 1.1276681380788292e-04 0.0000000000000000e+00  9.6176028816801940e-05 1.0974975103644101e-04 0.0000000000000000e+00  8.5097862142540385e-05 1.0668752983383101e-04 0.0000000000000000e+00  7.5239447910283654e-05 9.9048451582448021e-05 0.0000000000000000e+00  6.9946532747536811e-05 9.8610571582411467e-05 0.0000000000000000e+00  6.4409201467848941e-05 9.5338842125676255e-05 0.0000000000000000e+00  6.1872559081494553e-05 9.4395005633003565e-05 0.0000000000000000e+00  5.9977709773898887e-05 8.6156931625221974e-05 0.0000000000000000e+00  5.3713404137687249e-05 7.5092676185535385e-05 0.0000000000000000e+00  4.8312938183862725e-05 6.4615612542341642e-05 0.0000000000000000e+00  4.2716087732205949e-05 5.7392348309952314e-05 0.0000000000000000e+00  3.7342958773820905e-05 5.6077004640178600e-05 0.0000000000000000e+00  3.2517653989391532e-05 5.6428372726572109e-05 0.0000000000000000e+00  2.9282700365292428e-05 5.7532077684509301e-05 0.0000000000000000e+00  2.4732933081696343e-05 5.9312155670425644e-05 0.0000000000000000e+00  2.3341990483369750e-05 7.6986945456562295e-05 0.0000000000000000e+00  1.7849449018785639e-04 4.7336642235677903e-05 0.0000000000000000e+00  1.7934523094225729e-04 7.2540576341310336e-05 0.0000000000000000e+00  1.6755399850935951e-04 9.6177433833208938e-05 0.0000000000000000e+00  1.5792556798254549e-04 1.1126639610886527e-04 0.0000000000000000e+00  1.5156891069979009e-04 1.1992056062412182e-04 0.0000000000000000e+00  1.4389699157801397e-04 1.2278584700482737e-04 0.0000000000000000e+00  1.3802682780840266e-04 1.2704230250323896e-04 0.0000000000000000e+00  1.3358702394837511e-04 1.3077137793909128e-04 0.0000000000000000e+00  1.3145254727652681e-04 1.3745600038448871e-04 0.0000000000000000e+00  1.2662336869928125e-04 1.3711197556248890e-04 0.0000000000000000e+00  1.1808863236461630e-04 1.2929278657521605e-04 0.0000000000000000e+00  1.0523558296337438e-04 1.2013904799302005e-04 0.0000000000000000e+00  9.5068311108803465e-05 1.1540051807521684e-04 0.0000000000000000e+00  8.8321282850507309e-05 1.1581935158433589e-04 0.0000000000000000e+00  7.9104534538685850e-05 1.0295367928271930e-04 0.0000000000000000e+00  7.4298019395090730e-05 1.0025136326371853e-04 0.0000000000000000e+00  7.1121593151919778e-05 9.5987280601384075e-05 0.0000000000000000e+00  7.0586928212844943e-05 9.4067451042805772e-05 0.0000000000000000e+00  6.6767205835269639e-05 8.8275284074386360e-05 0.0000000000000000e+00  5.9918013472932816e-05 7.9836180465053382e-05 0.0000000000000000e+00  5.4228645530125241e-05 6.8767291759865400e-05 0.0000000000000000e+00  4.5345013831780204e-05 5.9911713334972860e-05 0.0000000000000000e+00  3.8180768899312632e-05 5.9137728260719538e-05 0.0000000000000000e+00  3.1601738002343039e-05 5.9405678667852573e-05 0.0000000000000000e+00  2.7180482874075107e-05 6.0091662463379737e-05 0.0000000000000000e+00  2.2399855198974350e-05 6.4102825949091541e-05 0.0000000000000000e+00  2.1150166779482717e-05 7.0506709720208254e-05 0.0000000000000000e+00  1.5683043744721411e-04 1.3829867316994507e-05 0.0000000000000000e+00  1.5700325367185768e-04 7.2775795902270082e-05 0.0000000000000000e+00  1.4985667886373047e-04 1.0206431924518404e-04 0.0000000000000000e+00  1.4504887121298139e-04 1.1383785133547228e-04 0.0000000000000000e+00  1.4182849061049937e-04 1.2119398988959269e-04 0.0000000000000000e+00  1.3833282435861700e-04 1.2525531890530847e-04 0.0000000000000000e+00  1.3361373089543506e-04 1.2787167665437866e-04 0.0000000000000000e+00  1.3033281911994213e-04 1.2801058078043678e-04 0.0000000000000000e+00  1.2911313710536128e-04 1.3472588095165473e-04 0.0000000000000000e+00  1.2506028167996613e-04 1.3964515502319240e-04 0.0000000000000000e+00  1.1743441754774825e-04 1.3376597375969003e-04 0.0000000000000000e+00  1.0561096400227040e-04 1.2804535332107126e-04 0.0000000000000000e+00  9.3949268001759366e-05 1.1891798593984764e-04 0.0000000000000000e+00  8.9614646209752849e-05 1.1631658802986162e-04 0.0000000000000000e+00  8.6131314583918274e-05 1.0611968872875269e-04 0.0000000000000000e+00  8.2258016855933354e-05 9.9578381838127266e-05 0.0000000000000000e+00  7.7544255072150672e-05 9.5767524120101330e-05 0.0000000000000000e+00  7.4439567497693366e-05 9.1549582885558126e-05 0.0000000000000000e+00  7.0703943790699120e-05 9.0935458862950657e-05 0.0000000000000000e+00  6.5193186586928861e-05 8.2440613624310994e-05 0.0000000000000000e+00  5.7960582651515781e-05 7.1212326965348034e-05 0.0000000000000000e+00  4.8976856759410873e-05 6.3287410507072351e-05 0.0000000000000000e+00  3.9642997294215795e-05 6.0778650973384572e-05 0.0000000000000000e+00  3.2371001199258262e-05 6.0730276473344614e-05 0.0000000000000000e+00  2.7559330519854014e-05 6.2248785827119892e-05 0.0000000000000000e+00  2.2870353244629114e-05 6.6476676713101942e-05 0.0000000000000000e+00  1.9706684942985343e-05 6.8600171397605161e-05 0.0000000000000000e+00  6.5592003889998503e-05 -6.7606379687677027e-05 0.0000000000000000e+00  1.1215039969257654e-04 7.1992394234076412e-05 0.0000000000000000e+00  1.2920605166441584e-04 1.0074595326816782e-04 0.0000000000000000e+00  1.3392700625667291e-04 1.1390111036276342e-04 0.0000000000000000e+00  1.3522688441679041e-04 1.2046182538388077e-04 0.0000000000000000e+00  1.3465871436424583e-04 1.2587323677946963e-04 0.0000000000000000e+00  1.3342346879347176e-04 1.2873524589683278e-04 0.0000000000000000e+00  1.2852316880777824e-04 1.2891018609396894e-04 0.0000000000000000e+00  1.2548082874473787e-04 1.3527338302296980e-04 0.0000000000000000e+00  1.2324011903153316e-04 1.4202523339578818e-04 0.0000000000000000e+00  1.1727502642441399e-04 1.3836926229244531e-04 0.0000000000000000e+00  1.0978115506206250e-04 1.3457811643405052e-04 0.0000000000000000e+00  1.0047668271267766e-04 1.2371745425359586e-04 0.0000000000000000e+00  9.2450478635337701e-05 1.1570034784713121e-04 0.0000000000000000e+00  9.2639050788951365e-05 1.0806328109770228e-04 0.0000000000000000e+00  8.8050726921179025e-05 1.0033420096276874e-04 0.0000000000000000e+00  8.4892233541044969e-05 9.8442297371550632e-05 0.0000000000000000e+00  7.7340053032452238e-05 9.2920907408559707e-05 0.0000000000000000e+00  7.2963682499691175e-05 9.3746281185342513e-05 0.0000000000000000e+00  7.0521029782638078e-05 8.4410487421183357e-05 0.0000000000000000e+00  6.4207788256890862e-05 7.5840092193953541e-05 0.0000000000000000e+00  5.3422306580798845e-05 6.8634743513907987e-05 0.0000000000000000e+00  4.1428318615856243e-05 6.4224689396086957e-05 0.0000000000000000e+00  3.4169517219140615e-05 6.3363984999527414e-05 0.0000000000000000e+00  2.5523734321327170e-05 6.5712455967294599e-05 0.0000000000000000e+00  2.2104456742078726e-05 6.8321585983110436e-05 0.0000000000000000e+00  2.0261857840981001e-05 6.9889254217203381e-05 0.0000000000000000e+00  </DataArray> 
</PointData> 
</Piece>
</UnstructuredGrid>
</VTKFile>