<?xml version="1.0"?>
<VTKFile type="UnstructuredGrid"  version="0.1"  >
<UnstructuredGrid>
<Piece  NumberOfPoints="135" NumberOfCells="208">
<Points>
<DataArray  type="Float64"  NumberOfComponents="3"  format="ascii">1 1 0  1.076923076923077 1 0  1.153846153846154 1 0  1.230769230769231 1 0  1.307692307692308 1 0  1.384615384615385 1 0  1.461538461538462 1 0  1.538461538461538 1 0  1.615384615384615 1 0  1.692307692307692 1 0  1.769230769230769 1 0  1.846153846153846 1 0  1.923076923076923 1 0  2 1 0  2.076923076923077 1 0  2.153846153846154 1 0  2.230769230769231 1 0  2.307692307692307 1 0  2.384615384615385 1 0  2.461538461538462 1 0  2.538461538461538 1 0  2.615384615384615 1 0  2.692307692307693 1 0  2.769230769230769 1 0  2.846153846153846 1 0  2.923076923076923 1 0  3 1 0  1 1.0625 0  1.076923076923077 1.0625 0  1.153846153846154 1.0625 0  1.230769230769231 1.0625 0  1.307692307692308 1.0625 0  1.384615384615385 1.0625 0  1.461538461538462 1.0625 0  1.538461538461538 1.0625 0  1.615384615384615 1.0625 0  1.692307692307692 1.0625 0  1.769230769230769 1.0625 0  1.846153846153846 1.0625 0  1.923076923076923 1.0625 0  2 1.0625 0  2.076923076923077 1.0625 0  2.153846153846154 1.0625 0  2.230769230769231 1.0625 0  2.307692307692307 1.0625 0  2.384615384615385 1.0625 0  2.461538461538462 1.0625 0  2.538461538461538 1.0625 0  2.615384615384615 1.0625 0  2.692307692307693 1.0625 0  2.769230769230769 1.0625 0  2.846153846153846 1.0625 0  2.923076923076923 1.0625 0  3 1.0625 0  1 1.125 0  1.076923076923077 1.125 0  1.153846153846154 1.125 0  1.230769230769231 1.125 0  1.307692307692308 1.125 0  1.384615384615385 1.125 0  1.461538461538462 1.125 0  1.538461538461538 1.125 0  1.615384615384615 1.125 0  1.692307692307692 1.125 0  1.769230769230769 1.125 0  1.846153846153846 1.125 0  1.923076923076923 1.125 0  2 1.125 0  2.076923076923077 1.125 0  2.153846153846154 1.125 0  2.230769230769231 1.125 0  2.307692307692307 1.125 0  2.384615384615385 1.125 0  2.461538461538462 1.125 0  2.538461538461538 1.125 0  2.615384615384615 1.125 0  2.692307692307693 1.125 0  2.769230769230769 1.125 0  2.846153846153846 1.125 0  2.923076923076923 1.125 0  3 1.125 0  1 1.1875 0  1.076923076923077 1.1875 0  1.153846153846154 1.1875 0  1.230769230769231 1.1875 0  1.307692307692308 1.1875 0  1.384615384615385 1.1875 0  1.461538461538462 1.1875 0  1.538461538461538 1.1875 0  1.615384615384615 1.1875 0  1.692307692307692 1.1875 0  1.769230769230769 1.1875 0  1.846153846153846 1.1875 0  1.923076923076923 1.1875 0  2 1.1875 0  2.076923076923077 1.1875 0  2.153846153846154 1.1875 0  2.230769230769231 1.1875 0  2.307692307692307 1.1875 0  2.384615384615385 1.1875 0  2.461538461538462 1.1875 0  2.538461538461538 1.1875 0  2.615384615384615 1.1875 0  2.692307692307693 1.1875 0  2.769230769230769 1.1875 0  2.846153846153846 1.1875 0  2.923076923076923 1.1875 0  3 1.1875 0  1 1.25 0  1.076923076923077 1.25 0  1.153846153846154 1.25 0  1.230769230769231 1.25 0  1.307692307692308 1.25 0  1.384615384615385 1.25 0  1.461538461538462 1.25 0  1.538461538461538 1.25 0  1.615384615384615 1.25 0  1.692307692307692 1.25 0  1.769230769230769 1.25 0  1.846153846153846 1.25 0  1.923076923076923 1.25 0  2 1.25 0  2.076923076923077 1.25 0  2.153846153846154 1.25 0  2.230769230769231 1.25 0  2.307692307692307 1.25 0  2.384615384615385 1.25 0  2.461538461538462 1.25 0  2.538461538461538 1.25 0  2.615384615384615 1.25 0  2.692307692307693 1.25 0  2.769230769230769 1.25 0  2.846153846153846 1.25 0  2.923076923076923 1.25 0  3 1.25 0  </DataArray>
</Points>
<Cells>
<DataArray  type="UInt32"  Name="connectivity"  format="ascii">0 1 28  0 27 28  1 2 29  1 28 29  2 3 30  2 29 30  3 4 31  3 30 31  4 5 32  4 31 32  5 6 33  5 32 33  6 7 34  6 33 34  7 8 35  7 34 35  8 9 36  8 35 36  9 10 37  9 36 37  10 11 38  10 37 38  11 12 39  11 38 39  12 13 40  12 39 40  13 14 41  13 40 41  14 15 42  14 41 42  15 16 43  15 42 43  16 17 44  16 43 44  17 18 45  17 44 45  18 19 46  18 45 46  19 20 47  19 46 47  20 21 48  20 47 48  21 22 49  21 48 49  22 23 50  22 49 50  23 24 51  23 50 51  24 25 52  24 51 52  25 26 53  25 52 53  27 28 55  27 54 55  28 29 56  28 55 56  29 30 57  29 56 57  30 31 58  30 57 58  31 32 59  31 58 59  32 33 60  32 59 60  33 34 61  33 60 61  34 35 62  34 61 62  35 36 63  35 62 63  36 37 64  36 63 64  37 38 65  37 64 65  38 39 66  38 65 66  39 40 67  39 66 67  40 41 68  40 67 68  41 42 69  41 68 69  42 43 70  42 69 70  43 44 71  43 70 71  44 45 72  44 71 72  45 46 73  45 72 73  46 47 74  46 73 74  47 48 75  47 74 75  48 49 76  48 75 76  49 50 77  49 76 77  50 51 78  50 77 78  51 52 79  51 78 79  52 53 80  52 79 80  54 55 82  54 81 82  55 56 83  55 82 83  56 57 84  56 83 84  57 58 85  57 84 85  58 59 86  58 85 86  59 60 87  59 86 87  60 61 88  60 87 88  61 62 89  61 88 89  62 63 90  62 89 90  63 64 91  63 90 91  64 65 92  64 91 92  65 66 93  65 92 93  66 67 94  66 93 94  67 68 95  67 94 95  68 69 96  68 95 96  69 70 97  69 96 97  70 71 98  70 97 98  71 72 99  71 98 99  72 73 100  72 99 100  73 74 101  73 100 101  74 75 102  74 101 102  75 76 103  75 102 103  76 77 104  76 103 104  77 78 105  77 104 105  78 79 106  78 105 106  79 80 107  79 106 107  81 82 109  81 108 109  82 83 110  82 109 110  83 84 111  83 110 111  84 85 112  84 111 112  85 86 113  85 112 113  86 87 114  86 113 114  87 88 115  87 114 115  88 89 116  88 115 116  89 90 117  89 116 117  90 91 118  90 117 118  91 92 119  91 118 119  92 93 120  92 119 120  93 94 121  93 120 121  94 95 122  94 121 122  95 96 123  95 122 123  96 97 124  96 123 124  97 98 125  97 124 125  98 99 126  98 125 126  99 100 127  99 126 127  100 101 128  100 127 128  101 102 129  101 128 129  102 103 130  102 129 130  103 104 131  103 130 131  104 105 132  104 131 132  105 106 133  105 132 133  106 107 134  106 133 134  </DataArray>
<DataArray  type="UInt32"  Name="offsets"  format="ascii">3 6 9 12 15 18 21 24 27 30 33 36 39 42 45 48 51 54 57 60 63 66 69 72 75 78 81 84 87 90 93 96 99 102 105 108 111 114 117 120 123 126 129 132 135 138 141 144 147 150 153 156 159 162 165 168 171 174 177 180 183 186 189 192 195 198 201 204 207 210 213 216 219 222 225 228 231 234 237 240 243 246 249 252 255 258 261 264 267 270 273 276 279 282 285 288 291 294 297 300 303 306 309 312 315 318 321 324 327 330 333 336 339 342 345 348 351 354 357 360 363 366 369 372 375 378 381 384 387 390 393 396 399 402 405 408 411 414 417 420 423 426 429 432 435 438 441 444 447 450 453 456 459 462 465 468 471 474 477 480 483 486 489 492 495 498 501 504 507 510 513 516 519 522 525 528 531 534 537 540 543 546 549 552 555 558 561 564 567 570 573 576 579 582 585 588 591 594 597 600 603 606 609 612 615 618 621 624 </DataArray>
<DataArray  type="UInt8"  Name="types"  format="ascii">5 5 5 5 5 5 5 5 5 5 5 5 5 5 5 5 5 5 5 5 5 5 5 5 5 5 5 5 5 5 5 5 5 5 5 5 5 5 5 5 5 5 5 5 5 5 5 5 5 5 5 5 5 5 5 5 5 5 5 5 5 5 5 5 5 5 5 5 5 5 5 5 5 5 5 5 5 5 5 5 5 5 5 5 5 5 5 5 5 5 5 5 5 5 5 5 5 5 5 5 5 5 5 5 5 5 5 5 5 5 5 5 5 5 5 5 5 5 5 5 5 5 5 5 5 5 5 5 5 5 5 5 5 5 5 5 5 5 5 5 5 5 5 5 5 5 5 5 5 5 5 5 5 5 5 5 5 5 5 5 5 5 5 5 5 5 5 5 5 5 5 5 5 5 5 5 5 5 5 5 5 5 5 5 5 5 5 5 5 5 5 5 5 5 5 5 5 5 5 5 5 5 5 5 5 5 5 5 </DataArray>
</Cells>
<PointData  Vectors="Displacement"> 
<DataArray  type="Float64"  Name="Displacement"  NumberOfComponents="3" format="ascii">5.5982893281630722e-04 1.6106880266875752e-04 0.0000000000000000e+00  6.0333648368453350e-04 6.5201193643560837e-05 0.0000000000000000e+00  6.1554889105235717e-04 1.1828786199442300e-04 0.0000000000000000e+00  6.0530254888363391e-04 1.6013286556197537e-04 0.0000000000000000e+00  5.9058778650967233e-04 1.9099033992321104e-04 0.0000000000000000e+00  5.7710336255183819e-04 2.1330251443864773e-04 0.0000000000000000e+00  5.6359879452638523e-04 2.2681168724223238e-04 0.0000000000000000e+00  5.5143766330441768e-04 2.3801521366457161e-04 0.0000000000000000e+00  5.3905051381865311e-04 2.4178846409805772e-04 0.0000000000000000e+00  5.2864761966395343e-04 2.4160952483446752e-04 0.0000000000000000e+00  5.1779585616306225e-04 2.4021862324846125e-04 0.0000000000000000e+00  5.0837736794395857e-04 2.3903158252150958e-04 0.0000000000000000e+00  4.9899513014729020e-04 2.3331325724307121e-04 0.0000000000000000e+00  4.9540034307883488e-04 2.2120750638242607e-04 0.0000000000000000e+00  4.9249013227981758e-04 2.1468592847892381e-04 0.0000000000000000e+00  4.8816207667071681e-04 2.0523063408886433e-04 0.0000000000000000e+00  4.8525074772063368e-04 1.9765661822433500e-04 0.0000000000000000e+00  4.8395396900411595e-04 1.9021952073670605e-04 0.0000000000000000e+00  4.8163283409628337e-04 1.8448544933458462e-04 0.0000000000000000e+00  4.8039948134105274e-04 1.7921059384171800e-04 0.0000000000000000e+00  4.8008484378191698e-04 1.7223246832873330e-04 0.0000000000000000e+00  4.8212298646273477e-04 1.6962815266069041e-04 0.0000000000000000e+00  4.8362613337908910e-04 1.7204420671804860e-04 0.0000000000000000e+00  4.8603076635928753e-04 1.7376426723739440e-04 0.0000000000000000e+00  4.8882189972609426e-04 1.8037246928834634e-04 0.0000000000000000e+00  4.9452044016958842e-04 1.8546124742764342e-04 0.0000000000000000e+00  5.1444790813847763e-04 2.4933462981815199e-04 0.0000000000000000e+00  5.9075544270322021e-04 6.1450264855299316e-05 0.0000000000000000e+00  5.9147980688418512e-04 7.0266927244254883e-05 0.0000000000000000e+00  5.8262245586576244e-04 1.1902684231618906e-04 0.0000000000000000e+00  5.7554254180543728e-04 1.6332713693430434e-04 0.0000000000000000e+00  5.6861484419930101e-04 1.9563127571128967e-04 0.0000000000000000e+00  5.6003053846098651e-04 2.1794555301166501e-04 0.0000000000000000e+00  5.5201602507359566e-04 2.3263807710993754e-04 0.0000000000000000e+00  5.4361600767722726e-04 2.4343891141358196e-04 0.0000000000000000e+00  5.3612512463382955e-04 2.4739856753383792e-04 0.0000000000000000e+00  5.2695340908233174e-04 2.4724489530528865e-04 0.0000000000000000e+00  5.1976337500860643e-04 2.4590193575194943e-04 0.0000000000000000e+00  5.1207231492415460e-04 2.4370963191596066e-04 0.0000000000000000e+00  5.0736246751070476e-04 2.3560034222349030e-04 0.0000000000000000e+00  5.0277245113257126e-04 2.2295327723484179e-04 0.0000000000000000e+00  4.9855241808245438e-04 2.1654419931102460e-04 0.0000000000000000e+00  4.9465113367614234e-04 2.0684377406008514e-04 0.0000000000000000e+00  4.9103351925913383e-04 1.9830930508044946e-04 0.0000000000000000e+00  4.8942534219559091e-04 1.9020025900107150e-04 0.0000000000000000e+00  4.8660409237366440e-04 1.8608208201729658e-04 0.0000000000000000e+00  4.8492949172792974e-04 1.7902506569750579e-04 0.0000000000000000e+00  4.8347453393085039e-04 1.7232605772923051e-04 0.0000000000000000e+00  4.8166383622960033e-04 1.6890420733362883e-04 0.0000000000000000e+00  4.8278953353573465e-04 1.7046791595924451e-04 0.0000000000000000e+00  4.8423554045455976e-04 1.7301061716413067e-04 0.0000000000000000e+00  4.8375093743215476e-04 1.8019226393214112e-04 0.0000000000000000e+00  4.7992961408737126e-04 1.9230823432777070e-04 0.0000000000000000e+00  4.8083468598752565e-04 2.1968884712990892e-04 0.0000000000000000e+00  5.5707302378035989e-04 2.1575679803863002e-05 0.0000000000000000e+00  5.6321575403557274e-04 7.3954856993967087e-05 0.0000000000000000e+00  5.5417710229514034e-04 1.2251079688196183e-04 0.0000000000000000e+00  5.4789335338826194e-04 1.6566083328526803e-04 0.0000000000000000e+00  5.4562689105289684e-04 1.9786126555715328e-04 0.0000000000000000e+00  5.4193857029776436e-04 2.2062494333214045e-04 0.0000000000000000e+00  5.3925768791836216e-04 2.3575784448330532e-04 0.0000000000000000e+00  5.3435299050938489e-04 2.4570234236719974e-04 0.0000000000000000e+00  5.3001605809228057e-04 2.5191167070571678e-04 0.0000000000000000e+00  5.2463735657908689e-04 2.4977900378770696e-04 0.0000000000000000e+00  5.2182174510688754e-04 2.4908037088309420e-04 0.0000000000000000e+00  5.1628166899136247e-04 2.4655173864181402e-04 0.0000000000000000e+00  5.1288098365539451e-04 2.3714610670806188e-04 0.0000000000000000e+00  5.0823726278176676e-04 2.2574240182935337e-04 0.0000000000000000e+00  5.0334422603080331e-04 2.1849506610275489e-04 0.0000000000000000e+00  5.0017983860474761e-04 2.0794617281559487e-04 0.0000000000000000e+00  4.9643458434082347e-04 1.9883544146809365e-04 0.0000000000000000e+00  4.9256370838011727e-04 1.9176172137839222e-04 0.0000000000000000e+00  4.8984906915115712e-04 1.8806732332856576e-04 0.0000000000000000e+00  4.8846270921342719e-04 1.7857210440445757e-04 0.0000000000000000e+00  4.8635332904677200e-04 1.7307237597100013e-04 0.0000000000000000e+00  4.8315848756040955e-04 1.6996155187336035e-04 0.0000000000000000e+00  4.8127642233139527e-04 1.6830964620209631e-04 0.0000000000000000e+00  4.8056082516225980e-04 1.7267755803854510e-04 0.0000000000000000e+00  4.7757702255339630e-04 1.8286546484042420e-04 0.0000000000000000e+00  4.7204818093911897e-04 1.9653115575578954e-04 0.0000000000000000e+00  4.7081451270625528e-04 2.1009542543459075e-04 0.0000000000000000e+00  5.1108129116856954e-04 -1.6352781664507625e-05 0.0000000000000000e+00  5.1980080281703741e-04 7.0314799434663492e-05 0.0000000000000000e+00  5.1815245317908131e-04 1.2691075226455362e-04 0.0000000000000000e+00  5.1874049282226863e-04 1.6601575775536886e-04 0.0000000000000000e+00  5.2134611174481230e-04 1.9781470983159177e-04 0.0000000000000000e+00  5.2386589505844347e-04 2.2085516931753672e-04 0.0000000000000000e+00  5.2446216904189838e-04 2.3689906482200599e-04 0.0000000000000000e+00  5.2520077058795583e-04 2.4707325895008229e-04 0.0000000000000000e+00  5.2638391243020079e-04 2.5386124251612548e-04 0.0000000000000000e+00  5.2495473609101844e-04 2.5185255602722047e-04 0.0000000000000000e+00  5.2171450431671550e-04 2.5081003096688885e-04 0.0000000000000000e+00  5.1943395468763507e-04 2.4900336206922684e-04 0.0000000000000000e+00  5.1666996553230101e-04 2.3866765436274433e-04 0.0000000000000000e+00  5.1262024134172436e-04 2.2786783823984516e-04 0.0000000000000000e+00  5.0996931587671084e-04 2.2028778950120619e-04 0.0000000000000000e+00  5.0587163394898551e-04 2.0932687743186026e-04 0.0000000000000000e+00  5.0130674728371654e-04 2.0185811798918371e-04 0.0000000000000000e+00  4.9596198189560503e-04 1.9435483987389077e-04 0.0000000000000000e+00  4.9311087426413770e-04 1.8878646610117697e-04 0.0000000000000000e+00  4.9188038781537789e-04 1.7990505390848348e-04 0.0000000000000000e+00  4.8851644371716288e-04 1.7608350709865322e-04 0.0000000000000000e+00  4.8428841898234229e-04 1.7217525897439959e-04 0.0000000000000000e+00  4.8025224063436787e-04 1.7076276714808722e-04 0.0000000000000000e+00  4.7555900105190056e-04 1.7449228145290571e-04 0.0000000000000000e+00  4.7136373732596459e-04 1.8691355894464640e-04 0.0000000000000000e+00  4.6649901428588090e-04 1.9861712248004480e-04 0.0000000000000000e+00  4.6532309419952287e-04 2.1005621483737700e-04 0.0000000000000000e+00  3.9160314202558245e-04 -1.1279557094262259e-04 0.0000000000000000e+00  4.5194570324098713e-04 6.6951828986105377e-05 0.0000000000000000e+00  4.7648925435217292e-04 1.2329044893197584e-04 0.0000000000000000e+00  4.8928902225844190e-04 1.6436237325583277e-04 0.0000000000000000e+00  4.9727657374468203e-04 1.9492460409121660e-04 0.0000000000000000e+00  5.0568235690987809e-04 2.1906586832751387e-04 0.0000000000000000e+00  5.1272365465246134e-04 2.3629400212178570e-04 0.0000000000000000e+00  5.1807892967475769e-04 2.4635610084836697e-04 0.0000000000000000e+00  5.2141542676033888e-04 2.5259257391557587e-04 0.0000000000000000e+00  5.2552457071530897e-04 2.5327750520742613e-04 0.0000000000000000e+00  5.2362478416382338e-04 2.5315006008053874e-04 0.0000000000000000e+00  5.2380147264946715e-04 2.5048801212242946e-04 0.0000000000000000e+00  5.2253698632816648e-04 2.4072412472325686e-04 0.0000000000000000e+00  5.1940413057790895e-04 2.3073525420162441e-04 0.0000000000000000e+00  5.1689400325519370e-04 2.2255455242167009e-04 0.0000000000000000e+00  5.1295545475210506e-04 2.1259313368183168e-04 0.0000000000000000e+00  5.0755296635010484e-04 2.0623134958706708e-04 0.0000000000000000e+00  5.0109142010681474e-04 1.9818905568563575e-04 0.0000000000000000e+00  4.9902979350232419e-04 1.9080796046540979e-04 0.0000000000000000e+00  4.9465247220094734e-04 1.8191327280737179e-04 0.0000000000000000e+00  4.9098272257194655e-04 1.7981067576780866e-04 0.0000000000000000e+00  4.8529825092627222e-04 1.7522426634521029e-04 0.0000000000000000e+00  4.7926466505586305e-04 1.7462324748368190e-04 0.0000000000000000e+00  4.7073370333336522e-04 1.7835258282935932e-04 0.0000000000000000e+00  4.6389092903315429e-04 1.9009253429752522e-04 0.0000000000000000e+00  4.5920337158382359e-04 2.0066925029553831e-04 0.0000000000000000e+00  4.5888838999370564e-04 2.1116365247840545e-04 0.0000000000000000e+00  </DataArray> 
</PointData> 
</Piece>
</UnstructuredGrid>
</VTKFile>