<?xml version="1.0"?>
<VTKFile type="UnstructuredGrid"  version="0.1"  >
<UnstructuredGrid>
<Piece  NumberOfPoints="135" NumberOfCells="208">
<Points>
<DataArray  type="Float64"  NumberOfComponents="3"  format="ascii">1 1 0  1.076923076923077 1 0  1.153846153846154 1 0  1.230769230769231 1 0  1.307692307692308 1 0  1.384615384615385 1 0  1.461538461538462 1 0  1.538461538461538 1 0  1.615384615384615 1 0  1.692307692307692 1 0  1.769230769230769 1 0  1.846153846153846 1 0  1.923076923076923 1 0  2 1 0  2.076923076923077 1 0  2.153846153846154 1 0  2.230769230769231 1 0  2.307692307692307 1 0  2.384615384615385 1 0  2.461538461538462 1 0  2.538461538461538 1 0  2.615384615384615 1 0  2.692307692307693 1 0  2.769230769230769 1 0  2.846153846153846 1 0  2.923076923076923 1 0  3 1 0  1 1.0625 0  1.076923076923077 1.0625 0  1.153846153846154 1.0625 0  1.230769230769231 1.0625 0  1.307692307692308 1.0625 0  1.384615384615385 1.0625 0  1.461538461538462 1.0625 0  1.538461538461538 1.0625 0  1.615384615384615 1.0625 0  1.692307692307692 1.0625 0  1.769230769230769 1.0625 0  1.846153846153846 1.0625 0  1.923076923076923 1.0625 0  2 1.0625 0  2.076923076923077 1.0625 0  2.153846153846154 1.0625 0  2.230769230769231 1.0625 0  2.307692307692307 1.0625 0  2.384615384615385 1.0625 0  2.461538461538462 1.0625 0  2.538461538461538 1.0625 0  2.615384615384615 1.0625 0  2.692307692307693 1.0625 0  2.769230769230769 1.0625 0  2.846153846153846 1.0625 0  2.923076923076923 1.0625 0  3 1.0625 0  1 1.125 0  1.076923076923077 1.125 0  1.153846153846154 1.125 0  1.230769230769231 1.125 0  1.307692307692308 1.125 0  1.384615384615385 1.125 0  1.461538461538462 1.125 0  1.538461538461538 1.125 0  1.615384615384615 1.125 0  1.692307692307692 1.125 0  1.769230769230769 1.125 0  1.846153846153846 1.125 0  1.923076923076923 1.125 0  2 1.125 0  2.076923076923077 1.125 0  2.153846153846154 1.125 0  2.230769230769231 1.125 0  2.307692307692307 1.125 0  2.384615384615385 1.125 0  2.461538461538462 1.125 0  2.538461538461538 1.125 0  2.615384615384615 1.125 0  2.692307692307693 1.125 0  2.769230769230769 1.125 0  2.846153846153846 1.125 0  2.923076923076923 1.125 0  3 1.125 0  1 1.1875 0  1.076923076923077 1.1875 0  1.153846153846154 1.1875 0  1.230769230769231 1.1875 0  1.307692307692308 1.1875 0  1.384615384615385 1.1875 0  1.461538461538462 1.1875 0  1.538461538461538 1.1875 0  1.615384615384615 1.1875 0  1.692307692307692 1.1875 0  1.769230769230769 1.1875 0  1.846153846153846 1.1875 0  1.923076923076923 1.1875 0  2 1.1875 0  2.076923076923077 1.1875 0  2.153846153846154 1.1875 0  2.230769230769231 1.1875 0  2.307692307692307 1.1875 0  2.384615384615385 1.1875 0  2.461538461538462 1.1875 0  2.538461538461538 1.1875 0  2.615384615384615 1.1875 0  2.692307692307693 1.1875 0  2.769230769230769 1.1875 0  2.846153846153846 1.1875 0  2.923076923076923 1.1875 0  3 1.1875 0  1 1.25 0  1.076923076923077 1.25 0  1.153846153846154 1.25 0  1.230769230769231 1.25 0  1.307692307692308 1.25 0  1.384615384615385 1.25 0  1.461538461538462 1.25 0  1.538461538461538 1.25 0  1.615384615384615 1.25 0  1.692307692307692 1.25 0  1.769230769230769 1.25 0  1.846153846153846 1.25 0  1.923076923076923 1.25 0  2 1.25 0  2.076923076923077 1.25 0  2.153846153846154 1.25 0  2.230769230769231 1.25 0  2.307692307692307 1.25 0  2.384615384615385 1.25 0  2.461538461538462 1.25 0  2.538461538461538 1.25 0  2.615384615384615 1.25 0  2.692307692307693 1.25 0  2.769230769230769 1.25 0  2.846153846153846 1.25 0  2.923076923076923 1.25 0  3 1.25 0  </DataArray>
</Points>
<Cells>
<DataArray  type="UInt32"  Name="connectivity"  format="ascii">0 1 28  0 27 28  1 2 29  1 28 29  2 3 30  2 29 30  3 4 31  3 30 31  4 5 32  4 31 32  5 6 33  5 32 33  6 7 34  6 33 34  7 8 35  7 34 35  8 9 36  8 35 36  9 10 37  9 36 37  10 11 38  10 37 38  11 12 39  11 38 39  12 13 40  12 39 40  13 14 41  13 40 41  14 15 42  14 41 42  15 16 43  15 42 43  16 17 44  16 43 44  17 18 45  17 44 45  18 19 46  18 45 46  19 20 47  19 46 47  20 21 48  20 47 48  21 22 49  21 48 49  22 23 50  22 49 50  23 24 51  23 50 51  24 25 52  24 51 52  25 26 53  25 52 53  27 28 55  27 54 55  28 29 56  28 55 56  29 30 57  29 56 57  30 31 58  30 57 58  31 32 59  31 58 59  32 33 60  32 59 60  33 34 61  33 60 61  34 35 62  34 61 62  35 36 63  35 62 63  36 37 64  36 63 64  37 38 65  37 64 65  38 39 66  38 65 66  39 40 67  39 66 67  40 41 68  40 67 68  41 42 69  41 68 69  42 43 70  42 69 70  43 44 71  43 70 71  44 45 72  44 71 72  45 46 73  45 72 73  46 47 74  46 73 74  47 48 75  47 74 75  48 49 76  48 75 76  49 50 77  49 76 77  50 51 78  50 77 78  51 52 79  51 78 79  52 53 80  52 79 80  54 55 82  54 81 82  55 56 83  55 82 83  56 57 84  56 83 84  57 58 85  57 84 85  58 59 86  58 85 86  59 60 87  59 86 87  60 61 88  60 87 88  61 62 89  61 88 89  62 63 90  62 89 90  63 64 91  63 90 91  64 65 92  64 91 92  65 66 93  65 92 93  66 67 94  66 93 94  67 68 95  67 94 95  68 69 96  68 95 96  69 70 97  69 96 97  70 71 98  70 97 98  71 72 99  71 98 99  72 73 100  72 99 100  73 74 101  73 100 101  74 75 102  74 101 102  75 76 103  75 102 103  76 77 104  76 103 104  77 78 105  77 104 105  78 79 106  78 105 106  79 80 107  79 106 107  81 82 109  81 108 109  82 83 110  82 109 110  83 84 111  83 110 111  84 85 112  84 111 112  85 86 113  85 112 113  86 87 114  86 113 114  87 88 115  87 114 115  88 89 116  88 115 116  89 90 117  89 116 117  90 91 118  90 117 118  91 92 119  91 118 119  92 93 120  92 119 120  93 94 121  93 120 121  94 95 122  94 121 122  95 96 123  95 122 123  96 97 124  96 123 124  97 98 125  97 124 125  98 99 126  98 125 126  99 100 127  99 126 127  100 101 128  100 127 128  101 102 129  101 128 129  102 103 130  102 129 130  103 104 131  103 130 131  104 105 132  104 131 132  105 106 133  105 132 133  106 107 134  106 133 134  </DataArray>
<DataArray  type="UInt32"  Name="offsets"  format="ascii">3 6 9 12 15 18 21 24 27 30 33 36 39 42 45 48 51 54 57 60 63 66 69 72 75 78 81 84 87 90 93 96 99 102 105 108 111 114 117 120 123 126 129 132 135 138 141 144 147 150 153 156 159 162 165 168 171 174 177 180 183 186 189 192 195 198 201 204 207 210 213 216 219 222 225 228 231 234 237 240 243 246 249 252 255 258 261 264 267 270 273 276 279 282 285 288 291 294 297 300 303 306 309 312 315 318 321 324 327 330 333 336 339 342 345 348 351 354 357 360 363 366 369 372 375 378 381 384 387 390 393 396 399 402 405 408 411 414 417 420 423 426 429 432 435 438 441 444 447 450 453 456 459 462 465 468 471 474 477 480 483 486 489 492 495 498 501 504 507 510 513 516 519 522 525 528 531 534 537 540 543 546 549 552 555 558 561 564 567 570 573 576 579 582 585 588 591 594 597 600 603 606 609 612 615 618 621 624 </DataArray>
<DataArray  type="UInt8"  Name="types"  format="ascii">5 5 5 5 5 5 5 5 5 5 5 5 5 5 5 5 5 5 5 5 5 5 5 5 5 5 5 5 5 5 5 5 5 5 5 5 5 5 5 5 5 5 5 5 5 5 5 5 5 5 5 5 5 5 5 5 5 5 5 5 5 5 5 5 5 5 5 5 5 5 5 5 5 5 5 5 5 5 5 5 5 5 5 5 5 5 5 5 5 5 5 5 5 5 5 5 5 5 5 5 5 5 5 5 5 5 5 5 5 5 5 5 5 5 5 5 5 5 5 5 5 5 5 5 5 5 5 5 5 5 5 5 5 5 5 5 5 5 5 5 5 5 5 5 5 5 5 5 5 5 5 5 5 5 5 5 5 5 5 5 5 5 5 5 5 5 5 5 5 5 5 5 5 5 5 5 5 5 5 5 5 5 5 5 5 5 5 5 5 5 5 5 5 5 5 5 5 5 5 5 5 5 5 5 5 5 5 5 </DataArray>
</Cells>
<PointData  Vectors="Displacement"> 
<DataArray  type="Float64"  Name="Displacement"  NumberOfComponents="3" format="ascii">2.0584333594203319e-04 1.7925513698692424e-04 0.0000000000000000e+00  2.5055326720684328e-04 6.6445507696250903e-05 0.0000000000000000e+00  2.6074736210705823e-04 9.6388138770242204e-05 0.0000000000000000e+00  2.5016587946367300e-04 1.1851069340920468e-04 0.0000000000000000e+00  2.3721778358275729e-04 1.3428882253879924e-04 0.0000000000000000e+00  2.2403975705755891e-04 1.4665666612626672e-04 0.0000000000000000e+00  2.1181221431862263e-04 1.5354647005919270e-04 0.0000000000000000e+00  2.0157582535643883e-04 1.5787414951674294e-04 0.0000000000000000e+00  1.9184654298517355e-04 1.5604708948358784e-04 0.0000000000000000e+00  1.8570665740779029e-04 1.5160473841230117e-04 0.0000000000000000e+00  1.7869155986037591e-04 1.4455715181635145e-04 0.0000000000000000e+00  1.7447432046709084e-04 1.3681707449057982e-04 0.0000000000000000e+00  1.6793335292095217e-04 1.3261561342609374e-04 0.0000000000000000e+00  1.5955506390735507e-04 1.3445922298724989e-04 0.0000000000000000e+00  1.4505960063821056e-04 1.3200510318519545e-04 0.0000000000000000e+00  1.3575988552136053e-04 1.1774560790652294e-04 0.0000000000000000e+00  1.3027188622117170e-04 1.0576115439626359e-04 0.0000000000000000e+00  1.2981170009263368e-04 9.3665609325955460e-05 0.0000000000000000e+00  1.2570792201276328e-04 9.1758519051769337e-05 0.0000000000000000e+00  1.1944639985080006e-04 8.4397290222274542e-05 0.0000000000000000e+00  1.2428135898967985e-04 8.5566338462239356e-05 0.0000000000000000e+00  1.2386815286597827e-04 8.6179397965168187e-05 0.0000000000000000e+00  1.3063083546600688e-04 8.0772167008549844e-05 0.0000000000000000e+00  1.3070414064703754e-04 8.2231081710472121e-05 0.0000000000000000e+00  1.3573721846819620e-04 8.2214401104222342e-05 0.0000000000000000e+00  1.4153949722996853e-04 8.0518450474615378e-05 0.0000000000000000e+00  1.5753424280667253e-04 1.2260888746937136e-04 0.0000000000000000e+00  2.5928547257824145e-04 8.5037594513366250e-05 0.0000000000000000e+00  2.5590375594825151e-04 7.1909239920392952e-05 0.0000000000000000e+00  2.4292536197838862e-04 9.8593322023130759e-05 0.0000000000000000e+00  2.3329576669766424e-04 1.2252422090077480e-04 0.0000000000000000e+00  2.2287400277705880e-04 1.4032670608029780e-04 0.0000000000000000e+00  2.1329984599383495e-04 1.5203166132645202e-04 0.0000000000000000e+00  2.0521409219644696e-04 1.5900138544771306e-04 0.0000000000000000e+00  1.9782540063146745e-04 1.6164549727381081e-04 0.0000000000000000e+00  1.9206055608793061e-04 1.5978630395984843e-04 0.0000000000000000e+00  1.8745077788944291e-04 1.5408988711582947e-04 0.0000000000000000e+00  1.8387856533291736e-04 1.4669005627550628e-04 0.0000000000000000e+00  1.7865131339083319e-04 1.4011985289543352e-04 0.0000000000000000e+00  1.6836700042704018e-04 1.3693111884478392e-04 0.0000000000000000e+00  1.5834184871117271e-04 1.4046943206315264e-04 0.0000000000000000e+00  1.5055990775372956e-04 1.3640916089776594e-04 0.0000000000000000e+00  1.4320470702605510e-04 1.2067995894942853e-04 0.0000000000000000e+00  1.4159376046367150e-04 1.0609585080555521e-04 0.0000000000000000e+00  1.3713372658715801e-04 9.6073957314475968e-05 0.0000000000000000e+00  1.2923596989992294e-04 9.4623693402692529e-05 0.0000000000000000e+00  1.2571495849546881e-04 8.6045097758440320e-05 0.0000000000000000e+00  1.2427916254256551e-04 8.2775772144907711e-05 0.0000000000000000e+00  1.2783583236068675e-04 8.3610755582393684e-05 0.0000000000000000e+00  1.3114594618349659e-04 7.8755038776451695e-05 0.0000000000000000e+00  1.3367426960279421e-04 8.1319556357237053e-05 0.0000000000000000e+00  1.3749393472185111e-04 8.1231079773632451e-05 0.0000000000000000e+00  1.3631294316293906e-04 8.5756285634229129e-05 0.0000000000000000e+00  1.3951706205928257e-04 1.0110716085929360e-04 0.0000000000000000e+00  2.3950969200580772e-04 4.6273666453111748e-05 0.0000000000000000e+00  2.4208171591653846e-04 7.7808798947275292e-05 0.0000000000000000e+00  2.2917655134280262e-04 1.0576719965741298e-04 0.0000000000000000e+00  2.1772076394047297e-04 1.2925671018624354e-04 0.0000000000000000e+00  2.0988366621490411e-04 1.4569577468359212e-04 0.0000000000000000e+00  2.0300122183875707e-04 1.5649247448329951e-04 0.0000000000000000e+00  1.9800588136597975e-04 1.6342314166438318e-04 0.0000000000000000e+00  1.9389353133083347e-04 1.6546829175935333e-04 0.0000000000000000e+00  1.8977485303719164e-04 1.6239995438708767e-04 0.0000000000000000e+00  1.8834473154720241e-04 1.5568653504607213e-04 0.0000000000000000e+00  1.8534436093742965e-04 1.4841455230935066e-04 0.0000000000000000e+00  1.8275518434563410e-04 1.4518809585546170e-04 0.0000000000000000e+00  1.7189680778797851e-04 1.4607657401254930e-04 0.0000000000000000e+00  1.6025407853908889e-04 1.4674745495750827e-04 0.0000000000000000e+00  1.5297779333261029e-04 1.3977417176416911e-04 0.0000000000000000e+00  1.4909417417372910e-04 1.2225322417008057e-04 0.0000000000000000e+00  1.4818312751563531e-04 1.0703400513278815e-04 0.0000000000000000e+00  1.4232534672576879e-04 1.0156158565965402e-04 0.0000000000000000e+00  1.3697821230796963e-04 9.9711772597826896e-05 0.0000000000000000e+00  1.3410717735219061e-04 9.0677633169833065e-05 0.0000000000000000e+00  1.3024416010762663e-04 8.3085962694636717e-05 0.0000000000000000e+00  1.3007214691516662e-04 8.2474787900567418e-05 0.0000000000000000e+00  1.3078897175520447e-04 7.9034448795613739e-05 0.0000000000000000e+00  1.3377086249812686e-04 8.0621249107352421e-05 0.0000000000000000e+00  1.3702121783914494e-04 8.3072322263704783e-05 0.0000000000000000e+00  1.3679846034349806e-04 8.8829783640573465e-05 0.0000000000000000e+00  1.3846039138733847e-04 9.3671833785132495e-05 0.0000000000000000e+00  2.0795613139574704e-04 1.0924237924780476e-05 0.0000000000000000e+00  2.1356414490889450e-04 7.8145615657181111e-05 0.0000000000000000e+00  2.0607323537431314e-04 1.1365801470423494e-04 0.0000000000000000e+00  2.0070415971794959e-04 1.3412371765057765e-04 0.0000000000000000e+00  1.9687721774691285e-04 1.4908254901574636e-04 0.0000000000000000e+00  1.9360865513572245e-04 1.5919835788015969e-04 0.0000000000000000e+00  1.9220073315678396e-04 1.6493823136710050e-04 0.0000000000000000e+00  1.9095036731147158e-04 1.6776823759715964e-04 0.0000000000000000e+00  1.8935369876233563e-04 1.6334819449633476e-04 0.0000000000000000e+00  1.8845647159306650e-04 1.5672451160817129e-04 0.0000000000000000e+00  1.8520547487106722e-04 1.5005011228724955e-04 0.0000000000000000e+00  1.8135903044472725e-04 1.4865968805433105e-04 0.0000000000000000e+00  1.7368588670088969e-04 1.5347955506511893e-04 0.0000000000000000e+00  1.6607508801526187e-04 1.5217956358369681e-04 0.0000000000000000e+00  1.6078497502550171e-04 1.4230408096407314e-04 0.0000000000000000e+00  1.5666738840482697e-04 1.2221991658209873e-04 0.0000000000000000e+00  1.5400369309987569e-04 1.1027848077700466e-04 0.0000000000000000e+00  1.4538719485868477e-04 1.0622316376060683e-04 0.0000000000000000e+00  1.4347641458211283e-04 1.0052874553031608e-04 0.0000000000000000e+00  1.4252309107237095e-04 9.4879230779769776e-05 0.0000000000000000e+00  1.3605336086381102e-04 8.7342102516030568e-05 0.0000000000000000e+00  1.3443490571377336e-04 8.2399561859334051e-05 0.0000000000000000e+00  1.3311394536703517e-04 7.9295555881492413e-05 0.0000000000000000e+00  1.3279425856205416e-04 7.8926271869423983e-05 0.0000000000000000e+00  1.3297061125353392e-04 8.3857644359976177e-05 0.0000000000000000e+00  1.3478895015439472e-04 8.8795564975516748e-05 0.0000000000000000e+00  1.3933955292306661e-04 8.9148893582761260e-05 0.0000000000000000e+00  1.1207454832369290e-04 -7.8965048069068407e-05 0.0000000000000000e+00  1.6175865620420460e-04 7.7397057472630758e-05 0.0000000000000000e+00  1.7992631717483686e-04 1.1319653937626661e-04 0.0000000000000000e+00  1.8447306412153685e-04 1.3458949732974798e-04 0.0000000000000000e+00  1.8685144702608171e-04 1.5006857531521046e-04 0.0000000000000000e+00  1.8678998354180066e-04 1.5952280026482326e-04 0.0000000000000000e+00  1.8775113178143052e-04 1.6461115530214159e-04 0.0000000000000000e+00  1.8931132981465213e-04 1.6713175768472480e-04 0.0000000000000000e+00  1.9161565934721025e-04 1.6327210153958390e-04 0.0000000000000000e+00  1.9044981118313702e-04 1.5694796999210536e-04 0.0000000000000000e+00  1.8623878768090078e-04 1.5264732143138957e-04 0.0000000000000000e+00  1.7827218724714600e-04 1.5194647830393826e-04 0.0000000000000000e+00  1.7396501317588133e-04 1.5764728517661099e-04 0.0000000000000000e+00  1.7083681098079682e-04 1.5468581893574084e-04 0.0000000000000000e+00  1.7176450302382212e-04 1.4315448053883723e-04 0.0000000000000000e+00  1.6815285996618534e-04 1.2368649853708322e-04 0.0000000000000000e+00  1.5865741587387750e-04 1.1408234670439360e-04 0.0000000000000000e+00  1.5182128961909019e-04 1.1064235573094640e-04 0.0000000000000000e+00  1.4785687582813690e-04 1.0083499629166781e-04 0.0000000000000000e+00  1.4464367525601537e-04 9.7267899045563205e-05 0.0000000000000000e+00  1.4244255891770970e-04 8.9480085784927803e-05 0.0000000000000000e+00  1.4024684045185276e-04 8.3427706146639913e-05 0.0000000000000000e+00  1.3541819880318637e-04 8.2073113270910675e-05 0.0000000000000000e+00  1.3031601944862555e-04 8.0358016529391441e-05 0.0000000000000000e+00  1.3102390865326745e-04 8.2943596086997086e-05 0.0000000000000000e+00  1.3485104640247245e-04 8.6442005654940231e-05 0.0000000000000000e+00  1.3935727395361798e-04 8.7994608321642582e-05 0.0000000000000000e+00  </DataArray> 
</PointData> 
</Piece>
</UnstructuredGrid>
</VTKFile>