<?xml version="1.0"?>
<VTKFile type="UnstructuredGrid"  version="0.1"  >
<UnstructuredGrid>
<Piece  NumberOfPoints="135" NumberOfCells="208">
<Points>
<DataArray  type="Float64"  NumberOfComponents="3"  format="ascii">1 1 0  1.076923076923077 1 0  1.153846153846154 1 0  1.230769230769231 1 0  1.307692307692308 1 0  1.384615384615385 1 0  1.461538461538462 1 0  1.538461538461538 1 0  1.615384615384615 1 0  1.692307692307692 1 0  1.769230769230769 1 0  1.846153846153846 1 0  1.923076923076923 1 0  2 1 0  2.076923076923077 1 0  2.153846153846154 1 0  2.230769230769231 1 0  2.307692307692307 1 0  2.384615384615385 1 0  2.461538461538462 1 0  2.538461538461538 1 0  2.615384615384615 1 0  2.692307692307693 1 0  2.769230769230769 1 0  2.846153846153846 1 0  2.923076923076923 1 0  3 1 0  1 1.0625 0  1.076923076923077 1.0625 0  1.153846153846154 1.0625 0  1.230769230769231 1.0625 0  1.307692307692308 1.0625 0  1.384615384615385 1.0625 0  1.461538461538462 1.0625 0  1.538461538461538 1.0625 0  1.615384615384615 1.0625 0  1.692307692307692 1.0625 0  1.769230769230769 1.0625 0  1.846153846153846 1.0625 0  1.923076923076923 1.0625 0  2 1.0625 0  2.076923076923077 1.0625 0  2.153846153846154 1.0625 0  2.230769230769231 1.0625 0  2.307692307692307 1.0625 0  2.384615384615385 1.0625 0  2.461538461538462 1.0625 0  2.538461538461538 1.0625 0  2.615384615384615 1.0625 0  2.692307692307693 1.0625 0  2.769230769230769 1.0625 0  2.846153846153846 1.0625 0  2.923076923076923 1.0625 0  3 1.0625 0  1 1.125 0  1.076923076923077 1.125 0  1.153846153846154 1.125 0  1.230769230769231 1.125 0  1.307692307692308 1.125 0  1.384615384615385 1.125 0  1.461538461538462 1.125 0  1.538461538461538 1.125 0  1.615384615384615 1.125 0  1.692307692307692 1.125 0  1.769230769230769 1.125 0  1.846153846153846 1.125 0  1.923076923076923 1.125 0  2 1.125 0  2.076923076923077 1.125 0  2.153846153846154 1.125 0  2.230769230769231 1.125 0  2.307692307692307 1.125 0  2.384615384615385 1.125 0  2.461538461538462 1.125 0  2.538461538461538 1.125 0  2.615384615384615 1.125 0  2.692307692307693 1.125 0  2.769230769230769 1.125 0  2.846153846153846 1.125 0  2.923076923076923 1.125 0  3 1.125 0  1 1.1875 0  1.076923076923077 1.1875 0  1.153846153846154 1.1875 0  1.230769230769231 1.1875 0  1.307692307692308 1.1875 0  1.384615384615385 1.1875 0  1.461538461538462 1.1875 0  1.538461538461538 1.1875 0  1.615384615384615 1.1875 0  1.692307692307692 1.1875 0  1.769230769230769 1.1875 0  1.846153846153846 1.1875 0  1.923076923076923 1.1875 0  2 1.1875 0  2.076923076923077 1.1875 0  2.153846153846154 1.1875 0  2.230769230769231 1.1875 0  2.307692307692307 1.1875 0  2.384615384615385 1.1875 0  2.461538461538462 1.1875 0  2.538461538461538 1.1875 0  2.615384615384615 1.1875 0  2.692307692307693 1.1875 0  2.769230769230769 1.1875 0  2.846153846153846 1.1875 0  2.923076923076923 1.1875 0  3 1.1875 0  1 1.25 0  1.076923076923077 1.25 0  1.153846153846154 1.25 0  1.230769230769231 1.25 0  1.307692307692308 1.25 0  1.384615384615385 1.25 0  1.461538461538462 1.25 0  1.538461538461538 1.25 0  1.615384615384615 1.25 0  1.692307692307692 1.25 0  1.769230769230769 1.25 0  1.846153846153846 1.25 0  1.923076923076923 1.25 0  2 1.25 0  2.076923076923077 1.25 0  2.153846153846154 1.25 0  2.230769230769231 1.25 0  2.307692307692307 1.25 0  2.384615384615385 1.25 0  2.461538461538462 1.25 0  2.538461538461538 1.25 0  2.615384615384615 1.25 0  2.692307692307693 1.25 0  2.769230769230769 1.25 0  2.846153846153846 1.25 0  2.923076923076923 1.25 0  3 1.25 0  </DataArray>
</Points>
<Cells>
<DataArray  type="UInt32"  Name="connectivity"  format="ascii">0 1 28  0 27 28  1 2 29  1 28 29  2 3 30  2 29 30  3 4 31  3 30 31  4 5 32  4 31 32  5 6 33  5 32 33  6 7 34  6 33 34  7 8 35  7 34 35  8 9 36  8 35 36  9 10 37  9 36 37  10 11 38  10 37 38  11 12 39  11 38 39  12 13 40  12 39 40  13 14 41  13 40 41  14 15 42  14 41 42  15 16 43  15 42 43  16 17 44  16 43 44  17 18 45  17 44 45  18 19 46  18 45 46  19 20 47  19 46 47  20 21 48  20 47 48  21 22 49  21 48 49  22 23 50  22 49 50  23 24 51  23 50 51  24 25 52  24 51 52  25 26 53  25 52 53  27 28 55  27 54 55  28 29 56  28 55 56  29 30 57  29 56 57  30 31 58  30 57 58  31 32 59  31 58 59  32 33 60  32 59 60  33 34 61  33 60 61  34 35 62  34 61 62  35 36 63  35 62 63  36 37 64  36 63 64  37 38 65  37 64 65  38 39 66  38 65 66  39 40 67  39 66 67  40 41 68  40 67 68  41 42 69  41 68 69  42 43 70  42 69 70  43 44 71  43 70 71  44 45 72  44 71 72  45 46 73  45 72 73  46 47 74  46 73 74  47 48 75  47 74 75  48 49 76  48 75 76  49 50 77  49 76 77  50 51 78  50 77 78  51 52 79  51 78 79  52 53 80  52 79 80  54 55 82  54 81 82  55 56 83  55 82 83  56 57 84  56 83 84  57 58 85  57 84 85  58 59 86  58 85 86  59 60 87  59 86 87  60 61 88  60 87 88  61 62 89  61 88 89  62 63 90  62 89 90  63 64 91  63 90 91  64 65 92  64 91 92  65 66 93  65 92 93  66 67 94  66 93 94  67 68 95  67 94 95  68 69 96  68 95 96  69 70 97  69 96 97  70 71 98  70 97 98  71 72 99  71 98 99  72 73 100  72 99 100  73 74 101  73 100 101  74 75 102  74 101 102  75 76 103  75 102 103  76 77 104  76 103 104  77 78 105  77 104 105  78 79 106  78 105 106  79 80 107  79 106 107  81 82 109  81 108 109  82 83 110  82 109 110  83 84 111  83 110 111  84 85 112  84 111 112  85 86 113  85 112 113  86 87 114  86 113 114  87 88 115  87 114 115  88 89 116  88 115 116  89 90 117  89 116 117  90 91 118  90 117 118  91 92 119  91 118 119  92 93 120  92 119 120  93 94 121  93 120 121  94 95 122  94 121 122  95 96 123  95 122 123  96 97 124  96 123 124  97 98 125  97 124 125  98 99 126  98 125 126  99 100 127  99 126 127  100 101 128  100 127 128  101 102 129  101 128 129  102 103 130  102 129 130  103 104 131  103 130 131  104 105 132  104 131 132  105 106 133  105 132 133  106 107 134  106 133 134  </DataArray>
<DataArray  type="UInt32"  Name="offsets"  format="ascii">3 6 9 12 15 18 21 24 27 30 33 36 39 42 45 48 51 54 57 60 63 66 69 72 75 78 81 84 87 90 93 96 99 102 105 108 111 114 117 120 123 126 129 132 135 138 141 144 147 150 153 156 159 162 165 168 171 174 177 180 183 186 189 192 195 198 201 204 207 210 213 216 219 222 225 228 231 234 237 240 243 246 249 252 255 258 261 264 267 270 273 276 279 282 285 288 291 294 297 300 303 306 309 312 315 318 321 324 327 330 333 336 339 342 345 348 351 354 357 360 363 366 369 372 375 378 381 384 387 390 393 396 399 402 405 408 411 414 417 420 423 426 429 432 435 438 441 444 447 450 453 456 459 462 465 468 471 474 477 480 483 486 489 492 495 498 501 504 507 510 513 516 519 522 525 528 531 534 537 540 543 546 549 552 555 558 561 564 567 570 573 576 579 582 585 588 591 594 597 600 603 606 609 612 615 618 621 624 </DataArray>
<DataArray  type="UInt8"  Name="types"  format="ascii">5 5 5 5 5 5 5 5 5 5 5 5 5 5 5 5 5 5 5 5 5 5 5 5 5 5 5 5 5 5 5 5 5 5 5 5 5 5 5 5 5 5 5 5 5 5 5 5 5 5 5 5 5 5 5 5 5 5 5 5 5 5 5 5 5 5 5 5 5 5 5 5 5 5 5 5 5 5 5 5 5 5 5 5 5 5 5 5 5 5 5 5 5 5 5 5 5 5 5 5 5 5 5 5 5 5 5 5 5 5 5 5 5 5 5 5 5 5 5 5 5 5 5 5 5 5 5 5 5 5 5 5 5 5 5 5 5 5 5 5 5 5 5 5 5 5 5 5 5 5 5 5 5 5 5 5 5 5 5 5 5 5 5 5 5 5 5 5 5 5 5 5 5 5 5 5 5 5 5 5 5 5 5 5 5 5 5 5 5 5 5 5 5 5 5 5 5 5 5 5 5 5 5 5 5 5 5 5 </DataArray>
</Cells>
<PointData  Vectors="Displacement"> 
<DataArray  type="Float64"  Name="Displacement"  NumberOfComponents="3" format="ascii">6.6206493577088664e-04 1.5356032005048510e-04 0.0000000000000000e+00  7.0593240047336480e-04 6.1284751590348258e-05 0.0000000000000000e+00  7.1892253951364566e-04 1.2013738050811299e-04 0.0000000000000000e+00  7.1152586572140620e-04 1.6278882440618210e-04 0.0000000000000000e+00  6.9866150499895883e-04 1.9811372100927158e-04 0.0000000000000000e+00  6.8252385115361871e-04 2.2354131002525084e-04 0.0000000000000000e+00  6.6918060784142911e-04 2.4554688123999073e-04 0.0000000000000000e+00  6.5236657195092231e-04 2.6010746595967702e-04 0.0000000000000000e+00  6.3825596997618673e-04 2.6344733233086686e-04 0.0000000000000000e+00  6.2853562708931759e-04 2.6612361679302757e-04 0.0000000000000000e+00  6.1735055293350271e-04 2.6458727553764976e-04 0.0000000000000000e+00  6.0736691694543248e-04 2.5930517264036878e-04 0.0000000000000000e+00  5.9967374421660393e-04 2.5246370399618109e-04 0.0000000000000000e+00  5.9499600549338383e-04 2.4677264822473607e-04 0.0000000000000000e+00  5.9079561977042104e-04 2.3801559124129651e-04 0.0000000000000000e+00  5.8519447509643142e-04 2.3019445850066644e-04 0.0000000000000000e+00  5.7998684192066426e-04 2.2031042205548007e-04 0.0000000000000000e+00  5.7613393086716205e-04 2.1084125314763759e-04 0.0000000000000000e+00  5.7403915375506373e-04 2.0087975984937428e-04 0.0000000000000000e+00  5.7468640009331637e-04 1.9687671180276031e-04 0.0000000000000000e+00  5.7329879380480571e-04 1.9668032786678393e-04 0.0000000000000000e+00  5.7271059889124685e-04 1.9694453634037194e-04 0.0000000000000000e+00  5.7362490999142489e-04 1.9940827421099076e-04 0.0000000000000000e+00  5.7622680924704719e-04 2.0130182747492523e-04 0.0000000000000000e+00  5.7772606699300509e-04 2.0716076544425208e-04 0.0000000000000000e+00  5.8447652468732268e-04 2.1097439722509763e-04 0.0000000000000000e+00  6.0364892180952295e-04 2.7408809270457169e-04 0.0000000000000000e+00  6.9400951114615631e-04 5.6863379558294002e-05 0.0000000000000000e+00  6.9366117061408215e-04 6.6800416655836187e-05 0.0000000000000000e+00  6.8428808250283303e-04 1.1856051775233411e-04 0.0000000000000000e+00  6.7849477935256054e-04 1.6536455968087436e-04 0.0000000000000000e+00  6.7026338266487379e-04 2.0300544926621090e-04 0.0000000000000000e+00  6.6201939022922731e-04 2.2941499805655507e-04 0.0000000000000000e+00  6.5241449852921751e-04 2.5116731101483710e-04 0.0000000000000000e+00  6.4342387674767474e-04 2.6675091301405103e-04 0.0000000000000000e+00  6.3466661000175287e-04 2.6873073805826030e-04 0.0000000000000000e+00  6.2648200798121458e-04 2.7115867177952434e-04 0.0000000000000000e+00  6.1870296060728865e-04 2.7032492839597962e-04 0.0000000000000000e+00  6.1123292088611472e-04 2.6417953108957072e-04 0.0000000000000000e+00  6.0464839987460701e-04 2.5585956859550585e-04 0.0000000000000000e+00  6.0155646091891301e-04 2.4903468973072514e-04 0.0000000000000000e+00  5.9833243086321710e-04 2.4122758647917162e-04 0.0000000000000000e+00  5.9280198512597028e-04 2.3341086313203869e-04 0.0000000000000000e+00  5.8880193992034394e-04 2.2289369039559754e-04 0.0000000000000000e+00  5.8342242366121353e-04 2.1351131308997525e-04 0.0000000000000000e+00  5.8013375340859228e-04 2.0195007120782843e-04 0.0000000000000000e+00  5.7756926166101404e-04 1.9791509820557055e-04 0.0000000000000000e+00  5.7595408903633369e-04 1.9765902199446946e-04 0.0000000000000000e+00  5.7496556107382204e-04 1.9738025052900443e-04 0.0000000000000000e+00  5.7425702412956488e-04 1.9931737030677449e-04 0.0000000000000000e+00  5.7371231388659671e-04 2.0112847352495369e-04 0.0000000000000000e+00  5.7423927192179350e-04 2.0671609786389298e-04 0.0000000000000000e+00  5.7131439597185401e-04 2.1881766203326935e-04 0.0000000000000000e+00  5.7195842763495817e-04 2.4577292496574365e-04 0.0000000000000000e+00  6.5636582677673443e-04 1.5556594492103621e-05 0.0000000000000000e+00  6.6410626672887588e-04 7.0696115865099418e-05 0.0000000000000000e+00  6.5510345280715395e-04 1.2232076352031943e-04 0.0000000000000000e+00  6.4720687812000900e-04 1.7003070320906630e-04 0.0000000000000000e+00  6.4316688125050153e-04 2.0567961012558231e-04 0.0000000000000000e+00  6.4015244507789658e-04 2.3192788516954063e-04 0.0000000000000000e+00  6.3636758608477217e-04 2.5462901880278873e-04 0.0000000000000000e+00  6.3305286270593961e-04 2.6964980957321831e-04 0.0000000000000000e+00  6.2912693631702221e-04 2.7281089628351351e-04 0.0000000000000000e+00  6.2338042942196282e-04 2.7474947555708240e-04 0.0000000000000000e+00  6.1931163264072463e-04 2.7389809984954672e-04 0.0000000000000000e+00  6.1464449496130503e-04 2.6764180624602453e-04 0.0000000000000000e+00  6.1008968803552424e-04 2.5830163567311468e-04 0.0000000000000000e+00  6.0677003424401536e-04 2.5012314116666678e-04 0.0000000000000000e+00  6.0315362682978062e-04 2.4324665618410602e-04 0.0000000000000000e+00  5.9927432154800806e-04 2.3712403901952702e-04 0.0000000000000000e+00  5.9475963384749862e-04 2.2639534221134694e-04 0.0000000000000000e+00  5.8966920546861914e-04 2.1628926156087532e-04 0.0000000000000000e+00  5.8612050246015853e-04 2.0444486053194146e-04 0.0000000000000000e+00  5.8129126541001108e-04 2.0002407950405260e-04 0.0000000000000000e+00  5.7833181190259037e-04 1.9928432615155914e-04 0.0000000000000000e+00  5.7572684366564205e-04 1.9852857502142802e-04 0.0000000000000000e+00  5.7380232109751554e-04 2.0008633479369660e-04 0.0000000000000000e+00  5.7075661938083889e-04 2.0326837771061394e-04 0.0000000000000000e+00  5.6856039239407184e-04 2.0977161166224498e-04 0.0000000000000000e+00  5.6505049880038467e-04 2.2195573078208553e-04 0.0000000000000000e+00  5.6555989472272027e-04 2.3669838048837310e-04 0.0000000000000000e+00  6.0576445485854629e-04 -2.6233463842315978e-05 0.0000000000000000e+00  6.1616239753890941e-04 6.8140575173681464e-05 0.0000000000000000e+00  6.1353478351459381e-04 1.2664899362095026e-04 0.0000000000000000e+00  6.1520666639741108e-04 1.7184397471049434e-04 0.0000000000000000e+00  6.1708510553354725e-04 2.0567192063678178e-04 0.0000000000000000e+00  6.1930853286143895e-04 2.3229919977703426e-04 0.0000000000000000e+00  6.2065318291735605e-04 2.5518857356170101e-04 0.0000000000000000e+00  6.2197632286223206e-04 2.7004113022046906e-04 0.0000000000000000e+00  6.2251028902921002e-04 2.7555704846218121e-04 0.0000000000000000e+00  6.2093874961454212e-04 2.7752993805913270e-04 0.0000000000000000e+00  6.2027261218925561e-04 2.7522990369675294e-04 0.0000000000000000e+00  6.1755581239552617e-04 2.6927110157603303e-04 0.0000000000000000e+00  6.1577238687870518e-04 2.5893995050263360e-04 0.0000000000000000e+00  6.1273225162674185e-04 2.5313911495613629e-04 0.0000000000000000e+00  6.0734618684754008e-04 2.4468356141702543e-04 0.0000000000000000e+00  6.0496113604062191e-04 2.3904371670822755e-04 0.0000000000000000e+00  6.0011755247190910e-04 2.2915290616474387e-04 0.0000000000000000e+00  5.9562971388156972e-04 2.1760415705591971e-04 0.0000000000000000e+00  5.9117657734246844e-04 2.0767339237630909e-04 0.0000000000000000e+00  5.8555509053775240e-04 2.0354338142613190e-04 0.0000000000000000e+00  5.7976950444625815e-04 2.0057644492025973e-04 0.0000000000000000e+00  5.7559654368615940e-04 2.0083277226441490e-04 0.0000000000000000e+00  5.7082635193512338e-04 2.0214687565490126e-04 0.0000000000000000e+00  5.6671445610907744e-04 2.0534103425297068e-04 0.0000000000000000e+00  5.6301175527095643e-04 2.1177955443435075e-04 0.0000000000000000e+00  5.6038691310039907e-04 2.2344434401370497e-04 0.0000000000000000e+00  5.5926276485472734e-04 2.3417840420893475e-04 0.0000000000000000e+00  4.8241556752383439e-04 -1.2217715421430477e-04 0.0000000000000000e+00  5.4346653317755933e-04 6.5385616166525014e-05 0.0000000000000000e+00  5.6892574656597036e-04 1.2379138381146584e-04 0.0000000000000000e+00  5.8134827346846844e-04 1.6714804616269305e-04 0.0000000000000000e+00  5.9248404430255945e-04 2.0355719481529336e-04 0.0000000000000000e+00  5.9837890144526023e-04 2.3022970387828268e-04 0.0000000000000000e+00  6.0406920038799227e-04 2.5266069147483446e-04 0.0000000000000000e+00  6.1220950856495356e-04 2.6789243104096241e-04 0.0000000000000000e+00  6.1712395618335669e-04 2.7558356177117177e-04 0.0000000000000000e+00  6.2070397220027212e-04 2.7707237541427443e-04 0.0000000000000000e+00  6.2202467677315173e-04 2.7507292656256610e-04 0.0000000000000000e+00  6.2330428823538443e-04 2.6995273851410215e-04 0.0000000000000000e+00  6.2121526806343120e-04 2.6016235731309099e-04 0.0000000000000000e+00  6.1756447139803847e-04 2.5617642853980742e-04 0.0000000000000000e+00  6.1440705464789480e-04 2.4678099176075397e-04 0.0000000000000000e+00  6.1075847689935321e-04 2.4106676848201000e-04 0.0000000000000000e+00  6.0794975792190556e-04 2.3241733391457653e-04 0.0000000000000000e+00  6.0251361207731488e-04 2.2032047120250765e-04 0.0000000000000000e+00  5.9620243388900523e-04 2.1115253889735243e-04 0.0000000000000000e+00  5.8824606304910853e-04 2.0678812177098637e-04 0.0000000000000000e+00  5.8234283028587208e-04 2.0359476207787431e-04 0.0000000000000000e+00  5.7514351558392697e-04 2.0375164560870236e-04 0.0000000000000000e+00  5.6860237212096726e-04 2.0504579725699762e-04 0.0000000000000000e+00  5.6296876753774436e-04 2.0797138426362913e-04 0.0000000000000000e+00  5.5738515874253060e-04 2.1426533508095964e-04 0.0000000000000000e+00  5.5283135671724390e-04 2.2430581336360921e-04 0.0000000000000000e+00  5.5174023401996302e-04 2.3426677924166488e-04 0.0000000000000000e+00  </DataArray> 
</PointData> 
</Piece>
</UnstructuredGrid>
</VTKFile>