<?xml version="1.0"?>
<VTKFile type="UnstructuredGrid"  version="0.1"  >
<UnstructuredGrid>
<Piece  NumberOfPoints="135" NumberOfCells="208">
<Points>
<DataArray  type="Float64"  NumberOfComponents="3"  format="ascii">1 1 0  1.076923076923077 1 0  1.153846153846154 1 0  1.230769230769231 1 0  1.307692307692308 1 0  1.384615384615385 1 0  1.461538461538462 1 0  1.538461538461538 1 0  1.615384615384615 1 0  1.692307692307692 1 0  1.769230769230769 1 0  1.846153846153846 1 0  1.923076923076923 1 0  2 1 0  2.076923076923077 1 0  2.153846153846154 1 0  2.230769230769231 1 0  2.307692307692307 1 0  2.384615384615385 1 0  2.461538461538462 1 0  2.538461538461538 1 0  2.615384615384615 1 0  2.692307692307693 1 0  2.769230769230769 1 0  2.846153846153846 1 0  2.923076923076923 1 0  3 1 0  1 1.0625 0  1.076923076923077 1.0625 0  1.153846153846154 1.0625 0  1.230769230769231 1.0625 0  1.307692307692308 1.0625 0  1.384615384615385 1.0625 0  1.461538461538462 1.0625 0  1.538461538461538 1.0625 0  1.615384615384615 1.0625 0  1.692307692307692 1.0625 0  1.769230769230769 1.0625 0  1.846153846153846 1.0625 0  1.923076923076923 1.0625 0  2 1.0625 0  2.076923076923077 1.0625 0  2.153846153846154 1.0625 0  2.230769230769231 1.0625 0  2.307692307692307 1.0625 0  2.384615384615385 1.0625 0  2.461538461538462 1.0625 0  2.538461538461538 1.0625 0  2.615384615384615 1.0625 0  2.692307692307693 1.0625 0  2.769230769230769 1.0625 0  2.846153846153846 1.0625 0  2.923076923076923 1.0625 0  3 1.0625 0  1 1.125 0  1.076923076923077 1.125 0  1.153846153846154 1.125 0  1.230769230769231 1.125 0  1.307692307692308 1.125 0  1.384615384615385 1.125 0  1.461538461538462 1.125 0  1.538461538461538 1.125 0  1.615384615384615 1.125 0  1.692307692307692 1.125 0  1.769230769230769 1.125 0  1.846153846153846 1.125 0  1.923076923076923 1.125 0  2 1.125 0  2.076923076923077 1.125 0  2.153846153846154 1.125 0  2.230769230769231 1.125 0  2.307692307692307 1.125 0  2.384615384615385 1.125 0  2.461538461538462 1.125 0  2.538461538461538 1.125 0  2.615384615384615 1.125 0  2.692307692307693 1.125 0  2.769230769230769 1.125 0  2.846153846153846 1.125 0  2.923076923076923 1.125 0  3 1.125 0  1 1.1875 0  1.076923076923077 1.1875 0  1.153846153846154 1.1875 0  1.230769230769231 1.1875 0  1.307692307692308 1.1875 0  1.384615384615385 1.1875 0  1.461538461538462 1.1875 0  1.538461538461538 1.1875 0  1.615384615384615 1.1875 0  1.692307692307692 1.1875 0  1.769230769230769 1.1875 0  1.846153846153846 1.1875 0  1.923076923076923 1.1875 0  2 1.1875 0  2.076923076923077 1.1875 0  2.153846153846154 1.1875 0  2.230769230769231 1.1875 0  2.307692307692307 1.1875 0  2.384615384615385 1.1875 0  2.461538461538462 1.1875 0  2.538461538461538 1.1875 0  2.615384615384615 1.1875 0  2.692307692307693 1.1875 0  2.769230769230769 1.1875 0  2.846153846153846 1.1875 0  2.923076923076923 1.1875 0  3 1.1875 0  1 1.25 0  1.076923076923077 1.25 0  1.153846153846154 1.25 0  1.230769230769231 1.25 0  1.307692307692308 1.25 0  1.384615384615385 1.25 0  1.461538461538462 1.25 0  1.538461538461538 1.25 0  1.615384615384615 1.25 0  1.692307692307692 1.25 0  1.769230769230769 1.25 0  1.846153846153846 1.25 0  1.923076923076923 1.25 0  2 1.25 0  2.076923076923077 1.25 0  2.153846153846154 1.25 0  2.230769230769231 1.25 0  2.307692307692307 1.25 0  2.384615384615385 1.25 0  2.461538461538462 1.25 0  2.538461538461538 1.25 0  2.615384615384615 1.25 0  2.692307692307693 1.25 0  2.769230769230769 1.25 0  2.846153846153846 1.25 0  2.923076923076923 1.25 0  3 1.25 0  </DataArray>
</Points>
<Cells>
<DataArray  type="UInt32"  Name="connectivity"  format="ascii">0 1 28  0 27 28  1 2 29  1 28 29  2 3 30  2 29 30  3 4 31  3 30 31  4 5 32  4 31 32  5 6 33  5 32 33  6 7 34  6 33 34  7 8 35  7 34 35  8 9 36  8 35 36  9 10 37  9 36 37  10 11 38  10 37 38  11 12 39  11 38 39  12 13 40  12 39 40  13 14 41  13 40 41  14 15 42  14 41 42  15 16 43  15 42 43  16 17 44  16 43 44  17 18 45  17 44 45  18 19 46  18 45 46  19 20 47  19 46 47  20 21 48  20 47 48  21 22 49  21 48 49  22 23 50  22 49 50  23 24 51  23 50 51  24 25 52  24 51 52  25 26 53  25 52 53  27 28 55  27 54 55  28 29 56  28 55 56  29 30 57  29 56 57  30 31 58  30 57 58  31 32 59  31 58 59  32 33 60  32 59 60  33 34 61  33 60 61  34 35 62  34 61 62  35 36 63  35 62 63  36 37 64  36 63 64  37 38 65  37 64 65  38 39 66  38 65 66  39 40 67  39 66 67  40 41 68  40 67 68  41 42 69  41 68 69  42 43 70  42 69 70  43 44 71  43 70 71  44 45 72  44 71 72  45 46 73  45 72 73  46 47 74  46 73 74  47 48 75  47 74 75  48 49 76  48 75 76  49 50 77  49 76 77  50 51 78  50 77 78  51 52 79  51 78 79  52 53 80  52 79 80  54 55 82  54 81 82  55 56 83  55 82 83  56 57 84  56 83 84  57 58 85  57 84 85  58 59 86  58 85 86  59 60 87  59 86 87  60 61 88  60 87 88  61 62 89  61 88 89  62 63 90  62 89 90  63 64 91  63 90 91  64 65 92  64 91 92  65 66 93  65 92 93  66 67 94  66 93 94  67 68 95  67 94 95  68 69 96  68 95 96  69 70 97  69 96 97  70 71 98  70 97 98  71 72 99  71 98 99  72 73 100  72 99 100  73 74 101  73 100 101  74 75 102  74 101 102  75 76 103  75 102 103  76 77 104  76 103 104  77 78 105  77 104 105  78 79 106  78 105 106  79 80 107  79 106 107  81 82 109  81 108 109  82 83 110  82 109 110  83 84 111  83 110 111  84 85 112  84 111 112  85 86 113  85 112 113  86 87 114  86 113 114  87 88 115  87 114 115  88 89 116  88 115 116  89 90 117  89 116 117  90 91 118  90 117 118  91 92 119  91 118 119  92 93 120  92 119 120  93 94 121  93 120 121  94 95 122  94 121 122  95 96 123  95 122 123  96 97 124  96 123 124  97 98 125  97 124 125  98 99 126  98 125 126  99 100 127  99 126 127  100 101 128  100 127 128  101 102 129  101 128 129  102 103 130  102 129 130  103 104 131  103 130 131  104 105 132  104 131 132  105 106 133  105 132 133  106 107 134  106 133 134  </DataArray>
<DataArray  type="UInt32"  Name="offsets"  format="ascii">3 6 9 12 15 18 21 24 27 30 33 36 39 42 45 48 51 54 57 60 63 66 69 72 75 78 81 84 87 90 93 96 99 102 105 108 111 114 117 120 123 126 129 132 135 138 141 144 147 150 153 156 159 162 165 168 171 174 177 180 183 186 189 192 195 198 201 204 207 210 213 216 219 222 225 228 231 234 237 240 243 246 249 252 255 258 261 264 267 270 273 276 279 282 285 288 291 294 297 300 303 306 309 312 315 318 321 324 327 330 333 336 339 342 345 348 351 354 357 360 363 366 369 372 375 378 381 384 387 390 393 396 399 402 405 408 411 414 417 420 423 426 429 432 435 438 441 444 447 450 453 456 459 462 465 468 471 474 477 480 483 486 489 492 495 498 501 504 507 510 513 516 519 522 525 528 531 534 537 540 543 546 549 552 555 558 561 564 567 570 573 576 579 582 585 588 591 594 597 600 603 606 609 612 615 618 621 624 </DataArray>
<DataArray  type="UInt8"  Name="types"  format="ascii">5 5 5 5 5 5 5 5 5 5 5 5 5 5 5 5 5 5 5 5 5 5 5 5 5 5 5 5 5 5 5 5 5 5 5 5 5 5 5 5 5 5 5 5 5 5 5 5 5 5 5 5 5 5 5 5 5 5 5 5 5 5 5 5 5 5 5 5 5 5 5 5 5 5 5 5 5 5 5 5 5 5 5 5 5 5 5 5 5 5 5 5 5 5 5 5 5 5 5 5 5 5 5 5 5 5 5 5 5 5 5 5 5 5 5 5 5 5 5 5 5 5 5 5 5 5 5 5 5 5 5 5 5 5 5 5 5 5 5 5 5 5 5 5 5 5 5 5 5 5 5 5 5 5 5 5 5 5 5 5 5 5 5 5 5 5 5 5 5 5 5 5 5 5 5 5 5 5 5 5 5 5 5 5 5 5 5 5 5 5 5 5 5 5 5 5 5 5 5 5 5 5 5 5 5 5 5 5 </DataArray>
</Cells>
<PointData  Vectors="Displacement"> 
<DataArray  type="Float64"  Name="Displacement"  NumberOfComponents="3" format="ascii">6.2264162879183344e-04 1.5768791280866342e-04 0.0000000000000000e+00  6.6597808301213104e-04 6.4010095531176562e-05 0.0000000000000000e+00  6.7773752853010551e-04 1.1678325228274867e-04 0.0000000000000000e+00  6.6781286714245143e-04 1.5758035734262290e-04 0.0000000000000000e+00  6.5499639699230321e-04 1.9300592182129955e-04 0.0000000000000000e+00  6.3829598499596596e-04 2.2048158180784817e-04 0.0000000000000000e+00  6.2516833292512622e-04 2.3942363150886360e-04 0.0000000000000000e+00  6.1209965454244797e-04 2.5156372251051740e-04 0.0000000000000000e+00  6.0162153591571013e-04 2.5897810883035221e-04 0.0000000000000000e+00  5.8905994294609204e-04 2.6047070861019619e-04 0.0000000000000000e+00  5.7918708313270167e-04 2.5384963142281199e-04 0.0000000000000000e+00  5.7121712797183295e-04 2.5121935701881296e-04 0.0000000000000000e+00  5.6344789130471017e-04 2.4239154882299048e-04 0.0000000000000000e+00  5.5662647699120517e-04 2.3507581271503962e-04 0.0000000000000000e+00  5.4959495980933892e-04 2.2496793857222376e-04 0.0000000000000000e+00  5.4358287071035280e-04 2.1914277228779410e-04 0.0000000000000000e+00  5.3823256618679637e-04 2.1045158509926026e-04 0.0000000000000000e+00  5.3449508778497456e-04 2.0179055176581070e-04 0.0000000000000000e+00  5.3267167271482446e-04 1.9544037541145492e-04 0.0000000000000000e+00  5.3142277975370023e-04 1.9054391028548538e-04 0.0000000000000000e+00  5.3070976208712776e-04 1.8505749962788914e-04 0.0000000000000000e+00  5.3331202422921508e-04 1.8496423102235462e-04 0.0000000000000000e+00  5.3411505174572515e-04 1.8838760109875506e-04 0.0000000000000000e+00  5.3806617733743350e-04 1.9267081115157618e-04 0.0000000000000000e+00  5.4072143999704442e-04 1.9984488973722898e-04 0.0000000000000000e+00  5.4633287620668388e-04 2.0182644861839582e-04 0.0000000000000000e+00  5.6584947990040815e-04 2.6413724378304427e-04 0.0000000000000000e+00  6.5671306998028737e-04 6.2037709131878885e-05 0.0000000000000000e+00  6.5628946916429466e-04 6.9791790586449235e-05 0.0000000000000000e+00  6.4382700924200563e-04 1.1780262482375630e-04 0.0000000000000000e+00  6.3598731053763193e-04 1.6110378065120273e-04 0.0000000000000000e+00  6.2747085984442481e-04 1.9822812922950362e-04 0.0000000000000000e+00  6.1812205308176449e-04 2.2599561036119623e-04 0.0000000000000000e+00  6.0979677144432250e-04 2.4466410653968914e-04 0.0000000000000000e+00  6.0233604876145698e-04 2.5647160742582300e-04 0.0000000000000000e+00  5.9558203834422351e-04 2.6393003472638068e-04 0.0000000000000000e+00  5.8925453925957319e-04 2.6614773869021511e-04 0.0000000000000000e+00  5.8083668477655300e-04 2.5841779651740194e-04 0.0000000000000000e+00  5.7588415292568311e-04 2.5503308592572096e-04 0.0000000000000000e+00  5.6955529453789095e-04 2.4708540968129754e-04 0.0000000000000000e+00  5.6378328599601929e-04 2.3967525830862331e-04 0.0000000000000000e+00  5.5682544826460897e-04 2.3039039632846361e-04 0.0000000000000000e+00  5.5000999169795397e-04 2.2304966050982339e-04 0.0000000000000000e+00  5.4641964947865144e-04 2.1329734191720504e-04 0.0000000000000000e+00  5.4233775789723981e-04 2.0473685950132264e-04 0.0000000000000000e+00  5.3907086228284745e-04 1.9721800200109773e-04 0.0000000000000000e+00  5.3688534317907128e-04 1.9160717313314928e-04 0.0000000000000000e+00  5.3510609857139165e-04 1.8609173407870531e-04 0.0000000000000000e+00  5.3420866841178750e-04 1.8567604458365704e-04 0.0000000000000000e+00  5.3512966569551040e-04 1.8841128974444500e-04 0.0000000000000000e+00  5.3613126344196065e-04 1.9286992234663451e-04 0.0000000000000000e+00  5.3724961759865565e-04 1.9993162524172708e-04 0.0000000000000000e+00  5.3489203828567598e-04 2.0995055615268874e-04 0.0000000000000000e+00  5.3638481453128660e-04 2.3593377596285454e-04 0.0000000000000000e+00  6.1863347070166747e-04 1.8590529346151530e-05 0.0000000000000000e+00  6.2656708308028893e-04 7.4329725597482570e-05 0.0000000000000000e+00  6.1544697222463399e-04 1.2343324541004607e-04 0.0000000000000000e+00  6.0678145248791956e-04 1.6528443275758611e-04 0.0000000000000000e+00  6.0152346570026629e-04 1.9996703533008855e-04 0.0000000000000000e+00  5.9941622088681185e-04 2.2939332385941478e-04 0.0000000000000000e+00  5.9540121218029326e-04 2.4817837114242310e-04 0.0000000000000000e+00  5.9218995996725891e-04 2.5938167678163327e-04 0.0000000000000000e+00  5.8871035087000416e-04 2.6688741508283019e-04 0.0000000000000000e+00  5.8659746991881914e-04 2.6851351594626353e-04 0.0000000000000000e+00  5.8286796930399518e-04 2.6088010830997683e-04 0.0000000000000000e+00  5.7960953575262556e-04 2.5680390420261773e-04 0.0000000000000000e+00  5.7367453685235742e-04 2.4984139734567486e-04 0.0000000000000000e+00  5.6823689232284741e-04 2.4259745287666683e-04 0.0000000000000000e+00  5.6395380995439550e-04 2.3390122476845044e-04 0.0000000000000000e+00  5.5831521843121169e-04 2.2540918452227567e-04 0.0000000000000000e+00  5.5492973939401250e-04 2.1484790225309802e-04 0.0000000000000000e+00  5.4971589044181554e-04 2.0786785832268642e-04 0.0000000000000000e+00  5.4468509369128102e-04 1.9829319131018356e-04 0.0000000000000000e+00  5.4064737578467356e-04 1.9261251223594040e-04 0.0000000000000000e+00  5.3730242527121215e-04 1.8747379051516552e-04 0.0000000000000000e+00  5.3471960385557829e-04 1.8635982510632263e-04 0.0000000000000000e+00  5.3355465676328253e-04 1.8847413441800843e-04 0.0000000000000000e+00  5.3341959187732768e-04 1.9303347693737301e-04 0.0000000000000000e+00  5.3122585387457507e-04 2.0063236802233912e-04 0.0000000000000000e+00  5.2829099981258369e-04 2.1262902905346234e-04 0.0000000000000000e+00  5.2945403600592096e-04 2.2628264452083204e-04 0.0000000000000000e+00  5.6995375690370486e-04 -2.2695322071104665e-05 0.0000000000000000e+00  5.8092845313407408e-04 7.1980812257121330e-05 0.0000000000000000e+00  5.7613022063370315e-04 1.2932932537716867e-04 0.0000000000000000e+00  5.7704853104282173e-04 1.6737104600481249e-04 0.0000000000000000e+00  5.7789757869223407e-04 2.0016929695269316e-04 0.0000000000000000e+00  5.7876363824209734e-04 2.2976665828754132e-04 0.0000000000000000e+00  5.7968320801480970e-04 2.4915701083077558e-04 0.0000000000000000e+00  5.8300606050402167e-04 2.6011404493725556e-04 0.0000000000000000e+00  5.8271563758726590e-04 2.6766320707204757e-04 0.0000000000000000e+00  5.8401230597441981e-04 2.6776696282750860e-04 0.0000000000000000e+00  5.8326073816080857e-04 2.6113244542218418e-04 0.0000000000000000e+00  5.8134126393591151e-04 2.5880258324236107e-04 0.0000000000000000e+00  5.7690645056170694e-04 2.5166483030019299e-04 0.0000000000000000e+00  5.7469974541174060e-04 2.4529377740895123e-04 0.0000000000000000e+00  5.7074961213110997e-04 2.3599417477207277e-04 0.0000000000000000e+00  5.6760164127457927e-04 2.2838709332067156e-04 0.0000000000000000e+00  5.6166736005252009e-04 2.1765051811312524e-04 0.0000000000000000e+00  5.5645023049312914e-04 2.1072763657789821e-04 0.0000000000000000e+00  5.5100346409227383e-04 2.0267266571178112e-04 0.0000000000000000e+00  5.4447885104637003e-04 1.9553103298249513e-04 0.0000000000000000e+00  5.3998492653345410e-04 1.8951229124621952e-04 0.0000000000000000e+00  5.3484019270451713e-04 1.8863826894605592e-04 0.0000000000000000e+00  5.3153671189344956e-04 1.8848642423731151e-04 0.0000000000000000e+00  5.2958780754821849e-04 1.9405659235021596e-04 0.0000000000000000e+00  5.2640078817823752e-04 2.0251493751975927e-04 0.0000000000000000e+00  5.2384325849690570e-04 2.1417112843549535e-04 0.0000000000000000e+00  5.2388886038263029e-04 2.2299982801308159e-04 0.0000000000000000e+00  4.4660389677125042e-04 -1.1854594924084909e-04 0.0000000000000000e+00  5.0907949515525323e-04 6.9174612246903361e-05 0.0000000000000000e+00  5.3428771613276251e-04 1.2675868370154458e-04 0.0000000000000000e+00  5.4647674288947254e-04 1.6399853322690908e-04 0.0000000000000000e+00  5.5203508084386305e-04 1.9857270905659365e-04 0.0000000000000000e+00  5.5820583704501835e-04 2.2889681009276660e-04 0.0000000000000000e+00  5.6663914500902700e-04 2.4662079798469429e-04 0.0000000000000000e+00  5.7431972202882475e-04 2.5860250459048959e-04 0.0000000000000000e+00  5.7942567228819815e-04 2.6746240754231082e-04 0.0000000000000000e+00  5.8420806900588045e-04 2.6704459532223983e-04 0.0000000000000000e+00  5.8564380875946907e-04 2.6226356946747761e-04 0.0000000000000000e+00  5.8302189930054037e-04 2.6139863134580228e-04 0.0000000000000000e+00  5.8228694076719115e-04 2.5332232747639848e-04 0.0000000000000000e+00  5.8041495871827622e-04 2.4716249092897921e-04 0.0000000000000000e+00  5.7859100748060136e-04 2.3822621883016974e-04 0.0000000000000000e+00  5.7469920255765969e-04 2.3158245910315009e-04 0.0000000000000000e+00  5.6939300536996019e-04 2.2182094007669871e-04 0.0000000000000000e+00  5.6231416165750212e-04 2.1431715351565603e-04 0.0000000000000000e+00  5.5607890107769379e-04 2.0737798389301092e-04 0.0000000000000000e+00  5.4982688054396793e-04 1.9872562408338679e-04 0.0000000000000000e+00  5.4285518712643291e-04 1.9321718172548042e-04 0.0000000000000000e+00  5.3701745174968799e-04 1.9231589438788616e-04 0.0000000000000000e+00  5.3099572633424322e-04 1.9083008732887497e-04 0.0000000000000000e+00  5.2533220790411752e-04 1.9672105929272336e-04 0.0000000000000000e+00  5.2146248126309133e-04 2.0486776840887593e-04 0.0000000000000000e+00  5.1943941044537128e-04 2.1563847638152796e-04 0.0000000000000000e+00  5.2152849780823566e-04 2.2097401689188871e-04 0.0000000000000000e+00  </DataArray> 
</PointData> 
</Piece>
</UnstructuredGrid>
</VTKFile>