<?xml version="1.0"?>
<VTKFile type="UnstructuredGrid"  version="0.1"  >
<UnstructuredGrid>
<Piece  NumberOfPoints="135" NumberOfCells="208">
<Points>
<DataArray  type="Float64"  NumberOfComponents="3"  format="ascii">1 1 0  1.076923076923077 1 0  1.153846153846154 1 0  1.230769230769231 1 0  1.307692307692308 1 0  1.384615384615385 1 0  1.461538461538462 1 0  1.538461538461538 1 0  1.615384615384615 1 0  1.692307692307692 1 0  1.769230769230769 1 0  1.846153846153846 1 0  1.923076923076923 1 0  2 1 0  2.076923076923077 1 0  2.153846153846154 1 0  2.230769230769231 1 0  2.307692307692307 1 0  2.384615384615385 1 0  2.461538461538462 1 0  2.538461538461538 1 0  2.615384615384615 1 0  2.692307692307693 1 0  2.769230769230769 1 0  2.846153846153846 1 0  2.923076923076923 1 0  3 1 0  1 1.0625 0  1.076923076923077 1.0625 0  1.153846153846154 1.0625 0  1.230769230769231 1.0625 0  1.307692307692308 1.0625 0  1.384615384615385 1.0625 0  1.461538461538462 1.0625 0  1.538461538461538 1.0625 0  1.615384615384615 1.0625 0  1.692307692307692 1.0625 0  1.769230769230769 1.0625 0  1.846153846153846 1.0625 0  1.923076923076923 1.0625 0  2 1.0625 0  2.076923076923077 1.0625 0  2.153846153846154 1.0625 0  2.230769230769231 1.0625 0  2.307692307692307 1.0625 0  2.384615384615385 1.0625 0  2.461538461538462 1.0625 0  2.538461538461538 1.0625 0  2.615384615384615 1.0625 0  2.692307692307693 1.0625 0  2.769230769230769 1.0625 0  2.846153846153846 1.0625 0  2.923076923076923 1.0625 0  3 1.0625 0  1 1.125 0  1.076923076923077 1.125 0  1.153846153846154 1.125 0  1.230769230769231 1.125 0  1.307692307692308 1.125 0  1.384615384615385 1.125 0  1.461538461538462 1.125 0  1.538461538461538 1.125 0  1.615384615384615 1.125 0  1.692307692307692 1.125 0  1.769230769230769 1.125 0  1.846153846153846 1.125 0  1.923076923076923 1.125 0  2 1.125 0  2.076923076923077 1.125 0  2.153846153846154 1.125 0  2.230769230769231 1.125 0  2.307692307692307 1.125 0  2.384615384615385 1.125 0  2.461538461538462 1.125 0  2.538461538461538 1.125 0  2.615384615384615 1.125 0  2.692307692307693 1.125 0  2.769230769230769 1.125 0  2.846153846153846 1.125 0  2.923076923076923 1.125 0  3 1.125 0  1 1.1875 0  1.076923076923077 1.1875 0  1.153846153846154 1.1875 0  1.230769230769231 1.1875 0  1.307692307692308 1.1875 0  1.384615384615385 1.1875 0  1.461538461538462 1.1875 0  1.538461538461538 1.1875 0  1.615384615384615 1.1875 0  1.692307692307692 1.1875 0  1.769230769230769 1.1875 0  1.846153846153846 1.1875 0  1.923076923076923 1.1875 0  2 1.1875 0  2.076923076923077 1.1875 0  2.153846153846154 1.1875 0  2.230769230769231 1.1875 0  2.307692307692307 1.1875 0  2.384615384615385 1.1875 0  2.461538461538462 1.1875 0  2.538461538461538 1.1875 0  2.615384615384615 1.1875 0  2.692307692307693 1.1875 0  2.769230769230769 1.1875 0  2.846153846153846 1.1875 0  2.923076923076923 1.1875 0  3 1.1875 0  1 1.25 0  1.076923076923077 1.25 0  1.153846153846154 1.25 0  1.230769230769231 1.25 0  1.307692307692308 1.25 0  1.384615384615385 1.25 0  1.461538461538462 1.25 0  1.538461538461538 1.25 0  1.615384615384615 1.25 0  1.692307692307692 1.25 0  1.769230769230769 1.25 0  1.846153846153846 1.25 0  1.923076923076923 1.25 0  2 1.25 0  2.076923076923077 1.25 0  2.153846153846154 1.25 0  2.230769230769231 1.25 0  2.307692307692307 1.25 0  2.384615384615385 1.25 0  2.461538461538462 1.25 0  2.538461538461538 1.25 0  2.615384615384615 1.25 0  2.692307692307693 1.25 0  2.769230769230769 1.25 0  2.846153846153846 1.25 0  2.923076923076923 1.25 0  3 1.25 0  </DataArray>
</Points>
<Cells>
<DataArray  type="UInt32"  Name="connectivity"  format="ascii">0 1 28  0 27 28  1 2 29  1 28 29  2 3 30  2 29 30  3 4 31  3 30 31  4 5 32  4 31 32  5 6 33  5 32 33  6 7 34  6 33 34  7 8 35  7 34 35  8 9 36  8 35 36  9 10 37  9 36 37  10 11 38  10 37 38  11 12 39  11 38 39  12 13 40  12 39 40  13 14 41  13 40 41  14 15 42  14 41 42  15 16 43  15 42 43  16 17 44  16 43 44  17 18 45  17 44 45  18 19 46  18 45 46  19 20 47  19 46 47  20 21 48  20 47 48  21 22 49  21 48 49  22 23 50  22 49 50  23 24 51  23 50 51  24 25 52  24 51 52  25 26 53  25 52 53  27 28 55  27 54 55  28 29 56  28 55 56  29 30 57  29 56 57  30 31 58  30 57 58  31 32 59  31 58 59  32 33 60  32 59 60  33 34 61  33 60 61  34 35 62  34 61 62  35 36 63  35 62 63  36 37 64  36 63 64  37 38 65  37 64 65  38 39 66  38 65 66  39 40 67  39 66 67  40 41 68  40 67 68  41 42 69  41 68 69  42 43 70  42 69 70  43 44 71  43 70 71  44 45 72  44 71 72  45 46 73  45 72 73  46 47 74  46 73 74  47 48 75  47 74 75  48 49 76  48 75 76  49 50 77  49 76 77  50 51 78  50 77 78  51 52 79  51 78 79  52 53 80  52 79 80  54 55 82  54 81 82  55 56 83  55 82 83  56 57 84  56 83 84  57 58 85  57 84 85  58 59 86  58 85 86  59 60 87  59 86 87  60 61 88  60 87 88  61 62 89  61 88 89  62 63 90  62 89 90  63 64 91  63 90 91  64 65 92  64 91 92  65 66 93  65 92 93  66 67 94  66 93 94  67 68 95  67 94 95  68 69 96  68 95 96  69 70 97  69 96 97  70 71 98  70 97 98  71 72 99  71 98 99  72 73 100  72 99 100  73 74 101  73 100 101  74 75 102  74 101 102  75 76 103  75 102 103  76 77 104  76 103 104  77 78 105  77 104 105  78 79 106  78 105 106  79 80 107  79 106 107  81 82 109  81 108 109  82 83 110  82 109 110  83 84 111  83 110 111  84 85 112  84 111 112  85 86 113  85 112 113  86 87 114  86 113 114  87 88 115  87 114 115  88 89 116  88 115 116  89 90 117  89 116 117  90 91 118  90 117 118  91 92 119  91 118 119  92 93 120  92 119 120  93 94 121  93 120 121  94 95 122  94 121 122  95 96 123  95 122 123  96 97 124  96 123 124  97 98 125  97 124 125  98 99 126  98 125 126  99 100 127  99 126 127  100 101 128  100 127 128  101 102 129  101 128 129  102 103 130  102 129 130  103 104 131  103 130 131  104 105 132  104 131 132  105 106 133  105 132 133  106 107 134  106 133 134  </DataArray>
<DataArray  type="UInt32"  Name="offsets"  format="ascii">3 6 9 12 15 18 21 24 27 30 33 36 39 42 45 48 51 54 57 60 63 66 69 72 75 78 81 84 87 90 93 96 99 102 105 108 111 114 117 120 123 126 129 132 135 138 141 144 147 150 153 156 159 162 165 168 171 174 177 180 183 186 189 192 195 198 201 204 207 210 213 216 219 222 225 228 231 234 237 240 243 246 249 252 255 258 261 264 267 270 273 276 279 282 285 288 291 294 297 300 303 306 309 312 315 318 321 324 327 330 333 336 339 342 345 348 351 354 357 360 363 366 369 372 375 378 381 384 387 390 393 396 399 402 405 408 411 414 417 420 423 426 429 432 435 438 441 444 447 450 453 456 459 462 465 468 471 474 477 480 483 486 489 492 495 498 501 504 507 510 513 516 519 522 525 528 531 534 537 540 543 546 549 552 555 558 561 564 567 570 573 576 579 582 585 588 591 594 597 600 603 606 609 612 615 618 621 624 </DataArray>
<DataArray  type="UInt8"  Name="types"  format="ascii">5 5 5 5 5 5 5 5 5 5 5 5 5 5 5 5 5 5 5 5 5 5 5 5 5 5 5 5 5 5 5 5 5 5 5 5 5 5 5 5 5 5 5 5 5 5 5 5 5 5 5 5 5 5 5 5 5 5 5 5 5 5 5 5 5 5 5 5 5 5 5 5 5 5 5 5 5 5 5 5 5 5 5 5 5 5 5 5 5 5 5 5 5 5 5 5 5 5 5 5 5 5 5 5 5 5 5 5 5 5 5 5 5 5 5 5 5 5 5 5 5 5 5 5 5 5 5 5 5 5 5 5 5 5 5 5 5 5 5 5 5 5 5 5 5 5 5 5 5 5 5 5 5 5 5 5 5 5 5 5 5 5 5 5 5 5 5 5 5 5 5 5 5 5 5 5 5 5 5 5 5 5 5 5 5 5 5 5 5 5 5 5 5 5 5 5 5 5 5 5 5 5 5 5 5 5 5 5 </DataArray>
</Cells>
<PointData  Vectors="Displacement"> 
<DataArray  type="Float64"  Name="Displacement"  NumberOfComponents="3" format="ascii">3.0819515590628282e-04 1.8444350139492215e-04 0.0000000000000000e+00  3.5520631068489491e-04 6.8287062424931874e-05 0.0000000000000000e+00  3.6567283168308285e-04 1.0997538931879438e-04 0.0000000000000000e+00  3.5441584753158638e-04 1.3596118699602710e-04 0.0000000000000000e+00  3.4255669635918949e-04 1.5706060867381181e-04 0.0000000000000000e+00  3.3206823868322356e-04 1.7411235057399334e-04 0.0000000000000000e+00  3.2130967892405677e-04 1.8895662728112014e-04 0.0000000000000000e+00  3.1101019019670254e-04 1.9739341003677805e-04 0.0000000000000000e+00  3.0092003491056357e-04 2.0055424197788587e-04 0.0000000000000000e+00  2.9469655427767866e-04 1.9685915991914538e-04 0.0000000000000000e+00  2.9029330919585691e-04 1.9312530969284306e-04 0.0000000000000000e+00  2.8810362201637022e-04 1.8666705171282655e-04 0.0000000000000000e+00  2.8430064918458312e-04 1.8004312498463862e-04 0.0000000000000000e+00  2.8192526618768407e-04 1.7089958273514011e-04 0.0000000000000000e+00  2.7889821133016352e-04 1.5996208715058019e-04 0.0000000000000000e+00  2.7908775202571039e-04 1.4903441351618813e-04 0.0000000000000000e+00  2.7881914540360260e-04 1.3730885600428291e-04 0.0000000000000000e+00  2.7791374561721540e-04 1.3411478356657841e-04 0.0000000000000000e+00  2.7657655787808878e-04 1.3520243382411022e-04 0.0000000000000000e+00  2.7300007095018309e-04 1.2973353024495294e-04 0.0000000000000000e+00  2.7045888928723197e-04 1.2110521929749488e-04 0.0000000000000000e+00  2.6974054802871218e-04 1.1692478625649727e-04 0.0000000000000000e+00  2.7413815629974891e-04 1.0565175408879909e-04 0.0000000000000000e+00  2.8167260715016967e-04 1.0862607165970534e-04 0.0000000000000000e+00  2.8261315781638645e-04 1.1801646589919163e-04 0.0000000000000000e+00  2.8620630207272442e-04 1.1861547313749276e-04 0.0000000000000000e+00  3.0173697829945944e-04 1.7417885071437098e-04 0.0000000000000000e+00  3.5853311385728798e-04 8.1369371938040587e-05 0.0000000000000000e+00  3.5544452864959346e-04 7.5341359532483452e-05 0.0000000000000000e+00  3.4209833691328556e-04 1.1126337465716693e-04 0.0000000000000000e+00  3.3307413278799652e-04 1.4131945182321992e-04 0.0000000000000000e+00  3.2391996522044886e-04 1.6106105087656852e-04 0.0000000000000000e+00  3.1710171326967024e-04 1.7913772187851828e-04 0.0000000000000000e+00  3.1144022479806559e-04 1.9311575243872390e-04 0.0000000000000000e+00  3.0489612413655344e-04 2.0147610283966332e-04 0.0000000000000000e+00  3.0014263494756565e-04 2.0329208038461147e-04 0.0000000000000000e+00  2.9669532678586110e-04 1.9902212595121344e-04 0.0000000000000000e+00  2.9426771813340975e-04 1.9467961836168844e-04 0.0000000000000000e+00  2.9180020917199509e-04 1.8782608070637538e-04 0.0000000000000000e+00  2.9094990654847516e-04 1.8112850845142519e-04 0.0000000000000000e+00  2.8934904622869719e-04 1.7157822706058621e-04 0.0000000000000000e+00  2.8797131888605047e-04 1.6132250173431971e-04 0.0000000000000000e+00  2.8641794027098815e-04 1.4851087681325514e-04 0.0000000000000000e+00  2.8404727881224120e-04 1.3902534802234180e-04 0.0000000000000000e+00  2.7987842633235110e-04 1.3601864479058159e-04 0.0000000000000000e+00  2.7823597686157248e-04 1.3450485237557111e-04 0.0000000000000000e+00  2.7904614465264221e-04 1.3007826020875737e-04 0.0000000000000000e+00  2.7870697749045065e-04 1.2330796688934587e-04 0.0000000000000000e+00  2.7797798569737783e-04 1.1597913839185644e-04 0.0000000000000000e+00  2.7813223734986009e-04 1.0456006535072000e-04 0.0000000000000000e+00  2.7710305064189661e-04 1.0919226363448242e-04 0.0000000000000000e+00  2.7802585136684350e-04 1.1660929305960571e-04 0.0000000000000000e+00  2.7541117650285864e-04 1.2632357932564685e-04 0.0000000000000000e+00  2.7497475768399648e-04 1.4929545366640246e-04 0.0000000000000000e+00  3.3375545418847880e-04 4.1249784969548276e-05 0.0000000000000000e+00  3.3517214820500167e-04 8.2792642133370771e-05 0.0000000000000000e+00  3.2171788974685015e-04 1.1802522385124857e-04 0.0000000000000000e+00  3.1208625872972145e-04 1.4694711955190516e-04 0.0000000000000000e+00  3.0602101647209790e-04 1.6548614604691459e-04 0.0000000000000000e+00  3.0212488309282794e-04 1.8198996983012801e-04 0.0000000000000000e+00  3.0097909439029467e-04 1.9499654705298111e-04 0.0000000000000000e+00  2.9954550639498353e-04 2.0484881660025135e-04 0.0000000000000000e+00  2.9798669441187964e-04 2.0569913458611322e-04 0.0000000000000000e+00  2.9638732072135199e-04 2.0086581483595166e-04 0.0000000000000000e+00  2.9580657852183452e-04 1.9528212890945504e-04 0.0000000000000000e+00  2.9737439537975578e-04 1.8933984512278749e-04 0.0000000000000000e+00  2.9708887933545790e-04 1.8170946127199402e-04 0.0000000000000000e+00  2.9565845770997275e-04 1.7240311292792950e-04 0.0000000000000000e+00  2.9365053820479416e-04 1.6262484151242240e-04 0.0000000000000000e+00  2.9175296535835488e-04 1.5018995957822337e-04 0.0000000000000000e+00  2.8767292942927247e-04 1.4234463997086802e-04 0.0000000000000000e+00  2.8455334308532512e-04 1.3878596831760104e-04 0.0000000000000000e+00  2.8248263846649649e-04 1.3570715416062084e-04 0.0000000000000000e+00  2.8189048618013323e-04 1.2988063813479584e-04 0.0000000000000000e+00  2.8290943762774098e-04 1.2492151883119657e-04 0.0000000000000000e+00  2.8275519925621172e-04 1.1775541358438717e-04 0.0000000000000000e+00  2.8008308191721334e-04 1.0831520122983261e-04 0.0000000000000000e+00  2.7657456140708659e-04 1.0999091565703944e-04 0.0000000000000000e+00  2.7529920180857225e-04 1.1723141515758328e-04 0.0000000000000000e+00  2.6898825261595681e-04 1.2913667516606617e-04 0.0000000000000000e+00  2.7004356209252208e-04 1.3777905995886655e-04 0.0000000000000000e+00  2.9338542646773034e-04 4.4712410051071413e-06 0.0000000000000000e+00  2.9957534415206899e-04 8.1417848732791740e-05 0.0000000000000000e+00  2.9309635150523167e-04 1.2562019567169511e-04 0.0000000000000000e+00  2.9083665240896728e-04 1.4936520708063673e-04 0.0000000000000000e+00  2.9039398865155468e-04 1.6771113905544605e-04 0.0000000000000000e+00  2.8973105960083462e-04 1.8196265368606291e-04 0.0000000000000000e+00  2.9175449440590719e-04 1.9407579335560621e-04 0.0000000000000000e+00  2.9334809777575957e-04 2.0444334947184465e-04 0.0000000000000000e+00  2.9535119112972225e-04 2.0674225651402575e-04 0.0000000000000000e+00  2.9676704248079452e-04 2.0069291803071341e-04 0.0000000000000000e+00  2.9891773976709578e-04 1.9357111111545464e-04 0.0000000000000000e+00  3.0044487032750665e-04 1.8799127226989539e-04 0.0000000000000000e+00  3.0124076174302780e-04 1.8240793816054138e-04 0.0000000000000000e+00  3.0102032176233709e-04 1.7220143816971641e-04 0.0000000000000000e+00  3.0014615041425472e-04 1.6349864976382988e-04 0.0000000000000000e+00  2.9828631105319875e-04 1.5224123205188973e-04 0.0000000000000000e+00  2.9365879082154917e-04 1.4501681835343095e-04 0.0000000000000000e+00  2.8931723729855909e-04 1.3997430973731404e-04 0.0000000000000000e+00  2.8671261316697233e-04 1.3625609525802910e-04 0.0000000000000000e+00  2.8607131093069319e-04 1.2994101724779023e-04 0.0000000000000000e+00  2.8461517299086751e-04 1.2510753851279561e-04 0.0000000000000000e+00  2.8359791278952161e-04 1.1847274221763355e-04 0.0000000000000000e+00  2.7926778421876234e-04 1.1085763500824264e-04 0.0000000000000000e+00  2.7558628989003702e-04 1.0884973208997640e-04 0.0000000000000000e+00  2.7240842554560583e-04 1.1973868519025145e-04 0.0000000000000000e+00  2.6867650573551675e-04 1.3146608900304750e-04 0.0000000000000000e+00  2.6826797007728753e-04 1.2982522373848561e-04 0.0000000000000000e+00  1.8362887336311089e-04 -9.1691515333525270e-05 0.0000000000000000e+00  2.3927739511899246e-04 7.9594645965580001e-05 0.0000000000000000e+00  2.6255725553990338e-04 1.2451664989941485e-04 0.0000000000000000e+00  2.7132484349240660e-04 1.4724710163511339e-04 0.0000000000000000e+00  2.7567032050729138e-04 1.6545031657323029e-04 0.0000000000000000e+00  2.7975386555912713e-04 1.8033304758813338e-04 0.0000000000000000e+00  2.8273450453118428e-04 1.9136744355134194e-04 0.0000000000000000e+00  2.8818831174524137e-04 2.0214045121679856e-04 0.0000000000000000e+00  2.9567509642198082e-04 2.0408399658095931e-04 0.0000000000000000e+00  3.0055941037270792e-04 1.9896428193741101e-04 0.0000000000000000e+00  3.0236158482117024e-04 1.9106782472284720e-04 0.0000000000000000e+00  3.0399422986890638e-04 1.8681916446565435e-04 0.0000000000000000e+00  3.0690721856067881e-04 1.8118846352574994e-04 0.0000000000000000e+00  3.0640043878954395e-04 1.7096303740030515e-04 0.0000000000000000e+00  3.0710986084071833e-04 1.6236864716379667e-04 0.0000000000000000e+00  3.0514970698982465e-04 1.5375193002720389e-04 0.0000000000000000e+00  2.9855808039330528e-04 1.4636227769611014e-04 0.0000000000000000e+00  2.9372357482650738e-04 1.4245098033740343e-04 0.0000000000000000e+00  2.9043994061411262e-04 1.3642262073875098e-04 0.0000000000000000e+00  2.9023065678371844e-04 1.3035679763592729e-04 0.0000000000000000e+00  2.8904841936227828e-04 1.2578494482156049e-04 0.0000000000000000e+00  2.8701217148412080e-04 1.2005314289024488e-04 0.0000000000000000e+00  2.8116249333723532e-04 1.1358595268322790e-04 0.0000000000000000e+00  2.7120032664278924e-04 1.1152586969185830e-04 0.0000000000000000e+00  2.6338315560792890e-04 1.2158266258914273e-04 0.0000000000000000e+00  2.6558882578513518e-04 1.3080116297779095e-04 0.0000000000000000e+00  2.7226799098274359e-04 1.2498170603074551e-04 0.0000000000000000e+00  </DataArray> 
</PointData> 
</Piece>
</UnstructuredGrid>
</VTKFile>