<?xml version="1.0"?>
<VTKFile type="UnstructuredGrid"  version="0.1"  >
<UnstructuredGrid>
<Piece  NumberOfPoints="135" NumberOfCells="208">
<Points>
<DataArray  type="Float64"  NumberOfComponents="3"  format="ascii">1 1 0  1.076923076923077 1 0  1.153846153846154 1 0  1.230769230769231 1 0  1.307692307692308 1 0  1.384615384615385 1 0  1.461538461538462 1 0  1.538461538461538 1 0  1.615384615384615 1 0  1.692307692307692 1 0  1.769230769230769 1 0  1.846153846153846 1 0  1.923076923076923 1 0  2 1 0  2.076923076923077 1 0  2.153846153846154 1 0  2.230769230769231 1 0  2.307692307692307 1 0  2.384615384615385 1 0  2.461538461538462 1 0  2.538461538461538 1 0  2.615384615384615 1 0  2.692307692307693 1 0  2.769230769230769 1 0  2.846153846153846 1 0  2.923076923076923 1 0  3 1 0  1 1.0625 0  1.076923076923077 1.0625 0  1.153846153846154 1.0625 0  1.230769230769231 1.0625 0  1.307692307692308 1.0625 0  1.384615384615385 1.0625 0  1.461538461538462 1.0625 0  1.538461538461538 1.0625 0  1.615384615384615 1.0625 0  1.692307692307692 1.0625 0  1.769230769230769 1.0625 0  1.846153846153846 1.0625 0  1.923076923076923 1.0625 0  2 1.0625 0  2.076923076923077 1.0625 0  2.153846153846154 1.0625 0  2.230769230769231 1.0625 0  2.307692307692307 1.0625 0  2.384615384615385 1.0625 0  2.461538461538462 1.0625 0  2.538461538461538 1.0625 0  2.615384615384615 1.0625 0  2.692307692307693 1.0625 0  2.769230769230769 1.0625 0  2.846153846153846 1.0625 0  2.923076923076923 1.0625 0  3 1.0625 0  1 1.125 0  1.076923076923077 1.125 0  1.153846153846154 1.125 0  1.230769230769231 1.125 0  1.307692307692308 1.125 0  1.384615384615385 1.125 0  1.461538461538462 1.125 0  1.538461538461538 1.125 0  1.615384615384615 1.125 0  1.692307692307692 1.125 0  1.769230769230769 1.125 0  1.846153846153846 1.125 0  1.923076923076923 1.125 0  2 1.125 0  2.076923076923077 1.125 0  2.153846153846154 1.125 0  2.230769230769231 1.125 0  2.307692307692307 1.125 0  2.384615384615385 1.125 0  2.461538461538462 1.125 0  2.538461538461538 1.125 0  2.615384615384615 1.125 0  2.692307692307693 1.125 0  2.769230769230769 1.125 0  2.846153846153846 1.125 0  2.923076923076923 1.125 0  3 1.125 0  1 1.1875 0  1.076923076923077 1.1875 0  1.153846153846154 1.1875 0  1.230769230769231 1.1875 0  1.307692307692308 1.1875 0  1.384615384615385 1.1875 0  1.461538461538462 1.1875 0  1.538461538461538 1.1875 0  1.615384615384615 1.1875 0  1.692307692307692 1.1875 0  1.769230769230769 1.1875 0  1.846153846153846 1.1875 0  1.923076923076923 1.1875 0  2 1.1875 0  2.076923076923077 1.1875 0  2.153846153846154 1.1875 0  2.230769230769231 1.1875 0  2.307692307692307 1.1875 0  2.384615384615385 1.1875 0  2.461538461538462 1.1875 0  2.538461538461538 1.1875 0  2.615384615384615 1.1875 0  2.692307692307693 1.1875 0  2.769230769230769 1.1875 0  2.846153846153846 1.1875 0  2.923076923076923 1.1875 0  3 1.1875 0  1 1.25 0  1.076923076923077 1.25 0  1.153846153846154 1.25 0  1.230769230769231 1.25 0  1.307692307692308 1.25 0  1.384615384615385 1.25 0  1.461538461538462 1.25 0  1.538461538461538 1.25 0  1.615384615384615 1.25 0  1.692307692307692 1.25 0  1.769230769230769 1.25 0  1.846153846153846 1.25 0  1.923076923076923 1.25 0  2 1.25 0  2.076923076923077 1.25 0  2.153846153846154 1.25 0  2.230769230769231 1.25 0  2.307692307692307 1.25 0  2.384615384615385 1.25 0  2.461538461538462 1.25 0  2.538461538461538 1.25 0  2.615384615384615 1.25 0  2.692307692307693 1.25 0  2.769230769230769 1.25 0  2.846153846153846 1.25 0  2.923076923076923 1.25 0  3 1.25 0  </DataArray>
</Points>
<Cells>
<DataArray  type="UInt32"  Name="connectivity"  format="ascii">0 1 28  0 27 28  1 2 29  1 28 29  2 3 30  2 29 30  3 4 31  3 30 31  4 5 32  4 31 32  5 6 33  5 32 33  6 7 34  6 33 34  7 8 35  7 34 35  8 9 36  8 35 36  9 10 37  9 36 37  10 11 38  10 37 38  11 12 39  11 38 39  12 13 40  12 39 40  13 14 41  13 40 41  14 15 42  14 41 42  15 16 43  15 42 43  16 17 44  16 43 44  17 18 45  17 44 45  18 19 46  18 45 46  19 20 47  19 46 47  20 21 48  20 47 48  21 22 49  21 48 49  22 23 50  22 49 50  23 24 51  23 50 51  24 25 52  24 51 52  25 26 53  25 52 53  27 28 55  27 54 55  28 29 56  28 55 56  29 30 57  29 56 57  30 31 58  30 57 58  31 32 59  31 58 59  32 33 60  32 59 60  33 34 61  33 60 61  34 35 62  34 61 62  35 36 63  35 62 63  36 37 64  36 63 64  37 38 65  37 64 65  38 39 66  38 65 66  39 40 67  39 66 67  40 41 68  40 67 68  41 42 69  41 68 69  42 43 70  42 69 70  43 44 71  43 70 71  44 45 72  44 71 72  45 46 73  45 72 73  46 47 74  46 73 74  47 48 75  47 74 75  48 49 76  48 75 76  49 50 77  49 76 77  50 51 78  50 77 78  51 52 79  51 78 79  52 53 80  52 79 80  54 55 82  54 81 82  55 56 83  55 82 83  56 57 84  56 83 84  57 58 85  57 84 85  58 59 86  58 85 86  59 60 87  59 86 87  60 61 88  60 87 88  61 62 89  61 88 89  62 63 90  62 89 90  63 64 91  63 90 91  64 65 92  64 91 92  65 66 93  65 92 93  66 67 94  66 93 94  67 68 95  67 94 95  68 69 96  68 95 96  69 70 97  69 96 97  70 71 98  70 97 98  71 72 99  71 98 99  72 73 100  72 99 100  73 74 101  73 100 101  74 75 102  74 101 102  75 76 103  75 102 103  76 77 104  76 103 104  77 78 105  77 104 105  78 79 106  78 105 106  79 80 107  79 106 107  81 82 109  81 108 109  82 83 110  82 109 110  83 84 111  83 110 111  84 85 112  84 111 112  85 86 113  85 112 113  86 87 114  86 113 114  87 88 115  87 114 115  88 89 116  88 115 116  89 90 117  89 116 117  90 91 118  90 117 118  91 92 119  91 118 119  92 93 120  92 119 120  93 94 121  93 120 121  94 95 122  94 121 122  95 96 123  95 122 123  96 97 124  96 123 124  97 98 125  97 124 125  98 99 126  98 125 126  99 100 127  99 126 127  100 101 128  100 127 128  101 102 129  101 128 129  102 103 130  102 129 130  103 104 131  103 130 131  104 105 132  104 131 132  105 106 133  105 132 133  106 107 134  106 133 134  </DataArray>
<DataArray  type="UInt32"  Name="offsets"  format="ascii">3 6 9 12 15 18 21 24 27 30 33 36 39 42 45 48 51 54 57 60 63 66 69 72 75 78 81 84 87 90 93 96 99 102 105 108 111 114 117 120 123 126 129 132 135 138 141 144 147 150 153 156 159 162 165 168 171 174 177 180 183 186 189 192 195 198 201 204 207 210 213 216 219 222 225 228 231 234 237 240 243 246 249 252 255 258 261 264 267 270 273 276 279 282 285 288 291 294 297 300 303 306 309 312 315 318 321 324 327 330 333 336 339 342 345 348 351 354 357 360 363 366 369 372 375 378 381 384 387 390 393 396 399 402 405 408 411 414 417 420 423 426 429 432 435 438 441 444 447 450 453 456 459 462 465 468 471 474 477 480 483 486 489 492 495 498 501 504 507 510 513 516 519 522 525 528 531 534 537 540 543 546 549 552 555 558 561 564 567 570 573 576 579 582 585 588 591 594 597 600 603 606 609 612 615 618 621 624 </DataArray>
<DataArray  type="UInt8"  Name="types"  format="ascii">5 5 5 5 5 5 5 5 5 5 5 5 5 5 5 5 5 5 5 5 5 5 5 5 5 5 5 5 5 5 5 5 5 5 5 5 5 5 5 5 5 5 5 5 5 5 5 5 5 5 5 5 5 5 5 5 5 5 5 5 5 5 5 5 5 5 5 5 5 5 5 5 5 5 5 5 5 5 5 5 5 5 5 5 5 5 5 5 5 5 5 5 5 5 5 5 5 5 5 5 5 5 5 5 5 5 5 5 5 5 5 5 5 5 5 5 5 5 5 5 5 5 5 5 5 5 5 5 5 5 5 5 5 5 5 5 5 5 5 5 5 5 5 5 5 5 5 5 5 5 5 5 5 5 5 5 5 5 5 5 5 5 5 5 5 5 5 5 5 5 5 5 5 5 5 5 5 5 5 5 5 5 5 5 5 5 5 5 5 5 5 5 5 5 5 5 5 5 5 5 5 5 5 5 5 5 5 5 </DataArray>
</Cells>
<PointData  Vectors="Displacement"> 
<DataArray  type="Float64"  Name="Displacement"  NumberOfComponents="3" format="ascii">2.1248924912856140e-04 1.8041638939920901e-04 0.0000000000000000e+00  2.5757439890878550e-04 6.6082798015695715e-05 0.0000000000000000e+00  2.6925348922654210e-04 9.9981302082800306e-05 0.0000000000000000e+00  2.5990476329954991e-04 1.2289992918539802e-04 0.0000000000000000e+00  2.4911320620021703e-04 1.4014689119878459e-04 0.0000000000000000e+00  2.3714302932356014e-04 1.5252180122438453e-04 0.0000000000000000e+00  2.2680269999144406e-04 1.5988135971150181e-04 0.0000000000000000e+00  2.1599532451331086e-04 1.6413494163708891e-04 0.0000000000000000e+00  2.0565902327283843e-04 1.6211156536827633e-04 0.0000000000000000e+00  1.9771359293642107e-04 1.5536635482626398e-04 0.0000000000000000e+00  1.9064898780611541e-04 1.4737600662976413e-04 0.0000000000000000e+00  1.8506238590814821e-04 1.4160470637666043e-04 0.0000000000000000e+00  1.7634473574257636e-04 1.3958121236753600e-04 0.0000000000000000e+00  1.6622855208625779e-04 1.3564737735889231e-04 0.0000000000000000e+00  1.5755562518073374e-04 1.3315677623792859e-04 0.0000000000000000e+00  1.4909545230079528e-04 1.2409256457077936e-04 0.0000000000000000e+00  1.4471043167174386e-04 1.1164269650049066e-04 0.0000000000000000e+00  1.4417632430263060e-04 1.0501122972517351e-04 0.0000000000000000e+00  1.4256906017889957e-04 9.7668884056943808e-05 0.0000000000000000e+00  1.3951352898811448e-04 9.2328607969110454e-05 0.0000000000000000e+00  1.3991787948629175e-04 8.4431234595542704e-05 0.0000000000000000e+00  1.4432417123495269e-04 8.3876104263563299e-05 0.0000000000000000e+00  1.4845592845284409e-04 8.8033908720931350e-05 0.0000000000000000e+00  1.5357285679123501e-04 8.7738524586054777e-05 0.0000000000000000e+00  1.5672806930909337e-04 8.9960775084034985e-05 0.0000000000000000e+00  1.5980514683239572e-04 8.3649922059199092e-05 0.0000000000000000e+00  1.7435443420893234e-04 1.2728544815481823e-04 0.0000000000000000e+00  2.6713555564237802e-04 8.3448998408318332e-05 0.0000000000000000e+00  2.6349068289143016e-04 7.2226521362113850e-05 0.0000000000000000e+00  2.5054541556116086e-04 1.0150551803308436e-04 0.0000000000000000e+00  2.4256718826910995e-04 1.2688914731353139e-04 0.0000000000000000e+00  2.3360859573006145e-04 1.4473376768274520e-04 0.0000000000000000e+00  2.2678046411709233e-04 1.5712387621491742e-04 0.0000000000000000e+00  2.2004525245030002e-04 1.6464869379131564e-04 0.0000000000000000e+00  2.1384211202667811e-04 1.6844610002075594e-04 0.0000000000000000e+00  2.0718643729502172e-04 1.6654487574723278e-04 0.0000000000000000e+00  2.0094090284386782e-04 1.5801951301928858e-04 0.0000000000000000e+00  1.9403713678051477e-04 1.5044633442368711e-04 0.0000000000000000e+00  1.8804309325105804e-04 1.4607687031296783e-04 0.0000000000000000e+00  1.7902238621380644e-04 1.4469997452514676e-04 0.0000000000000000e+00  1.6981667668582027e-04 1.4167221339333571e-04 0.0000000000000000e+00  1.6081402128172311e-04 1.3772218220989803e-04 0.0000000000000000e+00  1.5424587254435533e-04 1.2619216215152494e-04 0.0000000000000000e+00  1.5200236725179363e-04 1.1349517146594742e-04 0.0000000000000000e+00  1.5030728371401327e-04 1.0614879148305949e-04 0.0000000000000000e+00  1.4963843642913142e-04 9.7744925485062397e-05 0.0000000000000000e+00  1.4911491984761772e-04 9.4894184580538411e-05 0.0000000000000000e+00  1.4732126266343897e-04 8.5999956988761322e-05 0.0000000000000000e+00  1.4620408815911847e-04 8.2460600143226219e-05 0.0000000000000000e+00  1.4936915984676224e-04 8.5707868979175575e-05 0.0000000000000000e+00  1.5255094066843726e-04 8.4295068906036657e-05 0.0000000000000000e+00  1.5601889663611473e-04 8.8542271856462709e-05 0.0000000000000000e+00  1.5426941622981462e-04 8.9712523060172294e-05 0.0000000000000000e+00  1.5528605242847579e-04 1.0531742909970903e-04 0.0000000000000000e+00  2.4737097497163518e-04 4.5231364366350894e-05 0.0000000000000000e+00  2.4912722966644122e-04 7.9079502108870045e-05 0.0000000000000000e+00  2.3658573281847998e-04 1.0795084828515664e-04 0.0000000000000000e+00  2.2564140568052404e-04 1.3241109424797054e-04 0.0000000000000000e+00  2.1923912770028370e-04 1.4972841629276796e-04 0.0000000000000000e+00  2.1517614003751501e-04 1.6096374171522250e-04 0.0000000000000000e+00  2.1203775906520689e-04 1.6715435636760904e-04 0.0000000000000000e+00  2.1066638159998569e-04 1.7129988889019498e-04 0.0000000000000000e+00  2.0727890955789439e-04 1.6987381357349350e-04 0.0000000000000000e+00  2.0280565279418342e-04 1.6218709893864287e-04 0.0000000000000000e+00  1.9671988290314432e-04 1.5526878089846128e-04 0.0000000000000000e+00  1.9187165391789873e-04 1.5126662480375813e-04 0.0000000000000000e+00  1.8222678025524056e-04 1.5125783200085582e-04 0.0000000000000000e+00  1.7383420392217455e-04 1.4956022484417249e-04 0.0000000000000000e+00  1.6564667488828632e-04 1.4240292915754281e-04 0.0000000000000000e+00  1.6007443663585913e-04 1.2944627948496324e-04 0.0000000000000000e+00  1.5755866910517591e-04 1.1573719705079574e-04 0.0000000000000000e+00  1.5665669784690789e-04 1.0651969767645292e-04 0.0000000000000000e+00  1.5444582047570213e-04 9.9230717972683405e-05 0.0000000000000000e+00  1.5365731904238585e-04 9.6765511595172312e-05 0.0000000000000000e+00  1.5469496785733530e-04 8.8277971776476815e-05 0.0000000000000000e+00  1.5247786865912375e-04 8.3672113031396777e-05 0.0000000000000000e+00  1.5359798394997269e-04 8.4730093619904157e-05 0.0000000000000000e+00  1.5296840842541251e-04 8.4535086598624501e-05 0.0000000000000000e+00  1.5277339860866591e-04 8.8036327620695542e-05 0.0000000000000000e+00  1.5198343730834853e-04 9.0705423763845391e-05 0.0000000000000000e+00  1.5525846539605801e-04 9.6576802728614487e-05 0.0000000000000000e+00  2.1550801750273466e-04 1.0885651378871800e-05 0.0000000000000000e+00  2.1950852339485129e-04 7.8386460698030131e-05 0.0000000000000000e+00  2.1238312410989667e-04 1.1410736210963878e-04 0.0000000000000000e+00  2.0839050239336685e-04 1.3617600035712999e-04 0.0000000000000000e+00  2.0603231851634081e-04 1.5097733680065190e-04 0.0000000000000000e+00  2.0573287703640165e-04 1.6181693593395180e-04 0.0000000000000000e+00  2.0634560595953077e-04 1.6723912281550699e-04 0.0000000000000000e+00  2.0692557429190638e-04 1.7058884118892760e-04 0.0000000000000000e+00  2.0676598788569594e-04 1.7179035105185881e-04 0.0000000000000000e+00  2.0299472751750830e-04 1.6481004572776618e-04 0.0000000000000000e+00  1.9856809989651493e-04 1.5604858786840098e-04 0.0000000000000000e+00  1.9270629144090890e-04 1.5532911549860908e-04 0.0000000000000000e+00  1.8482188848307186e-04 1.5620385348914616e-04 0.0000000000000000e+00  1.7755761731930755e-04 1.5368188239291193e-04 0.0000000000000000e+00  1.7240442579956485e-04 1.4529147715986232e-04 0.0000000000000000e+00  1.6690199273152164e-04 1.3119768555299208e-04 0.0000000000000000e+00  1.6506986555102997e-04 1.1497809098506640e-04 0.0000000000000000e+00  1.6369514753063235e-04 1.0557068911320256e-04 0.0000000000000000e+00  1.5829324440251735e-04 1.0318336283606328e-04 0.0000000000000000e+00  1.5583379255850266e-04 9.3687646761885407e-05 0.0000000000000000e+00  1.5852947721901075e-04 8.7437674627509709e-05 0.0000000000000000e+00  1.5792380167176250e-04 8.4735372160526227e-05 0.0000000000000000e+00  1.5613569725752552e-04 8.4052943266390792e-05 0.0000000000000000e+00  1.5455286877398376e-04 8.4363803177758533e-05 0.0000000000000000e+00  1.5405594618536701e-04 8.5715129695099199e-05 0.0000000000000000e+00  1.5300185397001804e-04 9.0153944829684775e-05 0.0000000000000000e+00  1.5232566891432896e-04 9.2625726609921497e-05 0.0000000000000000e+00  1.1531107663473638e-04 -8.0678034422600067e-05 0.0000000000000000e+00  1.6688301207925540e-04 7.6735411676240599e-05 0.0000000000000000e+00  1.8513483272761659e-04 1.1366687421895846e-04 0.0000000000000000e+00  1.9114770309431727e-04 1.3547237155454498e-04 0.0000000000000000e+00  1.9525061633364162e-04 1.4992323835485427e-04 0.0000000000000000e+00  1.9858833137049295e-04 1.6003358310510120e-04 0.0000000000000000e+00  2.0211414025011410e-04 1.6567364151436311e-04 0.0000000000000000e+00  2.0502846182612127e-04 1.6852623814762131e-04 0.0000000000000000e+00  2.0661199619847442e-04 1.7175242156127708e-04 0.0000000000000000e+00  2.0719014763970881e-04 1.6610763556352981e-04 0.0000000000000000e+00  2.0044013796652804e-04 1.5870095269246881e-04 0.0000000000000000e+00  1.9193371986598345e-04 1.5958648255188867e-04 0.0000000000000000e+00  1.8655028174473622e-04 1.5943256063338912e-04 0.0000000000000000e+00  1.8263332093212544e-04 1.5579591670630651e-04 0.0000000000000000e+00  1.8107127012726543e-04 1.4648681607123292e-04 0.0000000000000000e+00  1.7909002841485087e-04 1.3334111315820797e-04 0.0000000000000000e+00  1.7443419733966038e-04 1.1640619006339011e-04 0.0000000000000000e+00  1.6632631274175540e-04 1.0729871405788514e-04 0.0000000000000000e+00  1.6593356415336253e-04 1.0567888172291969e-04 0.0000000000000000e+00  1.6395986035986355e-04 9.2466239549422106e-05 0.0000000000000000e+00  1.6088564640197818e-04 8.6796906298777806e-05 0.0000000000000000e+00  1.5830241299930327e-04 8.5916176393060364e-05 0.0000000000000000e+00  1.5584806293658348e-04 8.4066527652457376e-05 0.0000000000000000e+00  1.5693833208689175e-04 8.4111161963247523e-05 0.0000000000000000e+00  1.5345863135172517e-04 8.4889788935811367e-05 0.0000000000000000e+00  1.4862596329167049e-04 9.1292630339403333e-05 0.0000000000000000e+00  1.4418460458775575e-04 9.5543755179209873e-05 0.0000000000000000e+00  </DataArray> 
</PointData> 
</Piece>
</UnstructuredGrid>
</VTKFile>