<?xml version="1.0"?>
<VTKFile type="UnstructuredGrid"  version="0.1"  >
<UnstructuredGrid>
<Piece  NumberOfPoints="135" NumberOfCells="208">
<Points>
<DataArray  type="Float64"  NumberOfComponents="3"  format="ascii">1 1 0  1.076923076923077 1 0  1.153846153846154 1 0  1.230769230769231 1 0  1.307692307692308 1 0  1.384615384615385 1 0  1.461538461538462 1 0  1.538461538461538 1 0  1.615384615384615 1 0  1.692307692307692 1 0  1.769230769230769 1 0  1.846153846153846 1 0  1.923076923076923 1 0  2 1 0  2.076923076923077 1 0  2.153846153846154 1 0  2.230769230769231 1 0  2.307692307692307 1 0  2.384615384615385 1 0  2.461538461538462 1 0  2.538461538461538 1 0  2.615384615384615 1 0  2.692307692307693 1 0  2.769230769230769 1 0  2.846153846153846 1 0  2.923076923076923 1 0  3 1 0  1 1.0625 0  1.076923076923077 1.0625 0  1.153846153846154 1.0625 0  1.230769230769231 1.0625 0  1.307692307692308 1.0625 0  1.384615384615385 1.0625 0  1.461538461538462 1.0625 0  1.538461538461538 1.0625 0  1.615384615384615 1.0625 0  1.692307692307692 1.0625 0  1.769230769230769 1.0625 0  1.846153846153846 1.0625 0  1.923076923076923 1.0625 0  2 1.0625 0  2.076923076923077 1.0625 0  2.153846153846154 1.0625 0  2.230769230769231 1.0625 0  2.307692307692307 1.0625 0  2.384615384615385 1.0625 0  2.461538461538462 1.0625 0  2.538461538461538 1.0625 0  2.615384615384615 1.0625 0  2.692307692307693 1.0625 0  2.769230769230769 1.0625 0  2.846153846153846 1.0625 0  2.923076923076923 1.0625 0  3 1.0625 0  1 1.125 0  1.076923076923077 1.125 0  1.153846153846154 1.125 0  1.230769230769231 1.125 0  1.307692307692308 1.125 0  1.384615384615385 1.125 0  1.461538461538462 1.125 0  1.538461538461538 1.125 0  1.615384615384615 1.125 0  1.692307692307692 1.125 0  1.769230769230769 1.125 0  1.846153846153846 1.125 0  1.923076923076923 1.125 0  2 1.125 0  2.076923076923077 1.125 0  2.153846153846154 1.125 0  2.230769230769231 1.125 0  2.307692307692307 1.125 0  2.384615384615385 1.125 0  2.461538461538462 1.125 0  2.538461538461538 1.125 0  2.615384615384615 1.125 0  2.692307692307693 1.125 0  2.769230769230769 1.125 0  2.846153846153846 1.125 0  2.923076923076923 1.125 0  3 1.125 0  1 1.1875 0  1.076923076923077 1.1875 0  1.153846153846154 1.1875 0  1.230769230769231 1.1875 0  1.307692307692308 1.1875 0  1.384615384615385 1.1875 0  1.461538461538462 1.1875 0  1.538461538461538 1.1875 0  1.615384615384615 1.1875 0  1.692307692307692 1.1875 0  1.769230769230769 1.1875 0  1.846153846153846 1.1875 0  1.923076923076923 1.1875 0  2 1.1875 0  2.076923076923077 1.1875 0  2.153846153846154 1.1875 0  2.230769230769231 1.1875 0  2.307692307692307 1.1875 0  2.384615384615385 1.1875 0  2.461538461538462 1.1875 0  2.538461538461538 1.1875 0  2.615384615384615 1.1875 0  2.692307692307693 1.1875 0  2.769230769230769 1.1875 0  2.846153846153846 1.1875 0  2.923076923076923 1.1875 0  3 1.1875 0  1 1.25 0  1.076923076923077 1.25 0  1.153846153846154 1.25 0  1.230769230769231 1.25 0  1.307692307692308 1.25 0  1.384615384615385 1.25 0  1.461538461538462 1.25 0  1.538461538461538 1.25 0  1.615384615384615 1.25 0  1.692307692307692 1.25 0  1.769230769230769 1.25 0  1.846153846153846 1.25 0  1.923076923076923 1.25 0  2 1.25 0  2.076923076923077 1.25 0  2.153846153846154 1.25 0  2.230769230769231 1.25 0  2.307692307692307 1.25 0  2.384615384615385 1.25 0  2.461538461538462 1.25 0  2.538461538461538 1.25 0  2.615384615384615 1.25 0  2.692307692307693 1.25 0  2.769230769230769 1.25 0  2.846153846153846 1.25 0  2.923076923076923 1.25 0  3 1.25 0  </DataArray>
</Points>
<Cells>
<DataArray  type="UInt32"  Name="connectivity"  format="ascii">0 1 28  0 27 28  1 2 29  1 28 29  2 3 30  2 29 30  3 4 31  3 30 31  4 5 32  4 31 32  5 6 33  5 32 33  6 7 34  6 33 34  7 8 35  7 34 35  8 9 36  8 35 36  9 10 37  9 36 37  10 11 38  10 37 38  11 12 39  11 38 39  12 13 40  12 39 40  13 14 41  13 40 41  14 15 42  14 41 42  15 16 43  15 42 43  16 17 44  16 43 44  17 18 45  17 44 45  18 19 46  18 45 46  19 20 47  19 46 47  20 21 48  20 47 48  21 22 49  21 48 49  22 23 50  22 49 50  23 24 51  23 50 51  24 25 52  24 51 52  25 26 53  25 52 53  27 28 55  27 54 55  28 29 56  28 55 56  29 30 57  29 56 57  30 31 58  30 57 58  31 32 59  31 58 59  32 33 60  32 59 60  33 34 61  33 60 61  34 35 62  34 61 62  35 36 63  35 62 63  36 37 64  36 63 64  37 38 65  37 64 65  38 39 66  38 65 66  39 40 67  39 66 67  40 41 68  40 67 68  41 42 69  41 68 69  42 43 70  42 69 70  43 44 71  43 70 71  44 45 72  44 71 72  45 46 73  45 72 73  46 47 74  46 73 74  47 48 75  47 74 75  48 49 76  48 75 76  49 50 77  49 76 77  50 51 78  50 77 78  51 52 79  51 78 79  52 53 80  52 79 80  54 55 82  54 81 82  55 56 83  55 82 83  56 57 84  56 83 84  57 58 85  57 84 85  58 59 86  58 85 86  59 60 87  59 86 87  60 61 88  60 87 88  61 62 89  61 88 89  62 63 90  62 89 90  63 64 91  63 90 91  64 65 92  64 91 92  65 66 93  65 92 93  66 67 94  66 93 94  67 68 95  67 94 95  68 69 96  68 95 96  69 70 97  69 96 97  70 71 98  70 97 98  71 72 99  71 98 99  72 73 100  72 99 100  73 74 101  73 100 101  74 75 102  74 101 102  75 76 103  75 102 103  76 77 104  76 103 104  77 78 105  77 104 105  78 79 106  78 105 106  79 80 107  79 106 107  81 82 109  81 108 109  82 83 110  82 109 110  83 84 111  83 110 111  84 85 112  84 111 112  85 86 113  85 112 113  86 87 114  86 113 114  87 88 115  87 114 115  88 89 116  88 115 116  89 90 117  89 116 117  90 91 118  90 117 118  91 92 119  91 118 119  92 93 120  92 119 120  93 94 121  93 120 121  94 95 122  94 121 122  95 96 123  95 122 123  96 97 124  96 123 124  97 98 125  97 124 125  98 99 126  98 125 126  99 100 127  99 126 127  100 101 128  100 127 128  101 102 129  101 128 129  102 103 130  102 129 130  103 104 131  103 130 131  104 105 132  104 131 132  105 106 133  105 132 133  106 107 134  106 133 134  </DataArray>
<DataArray  type="UInt32"  Name="offsets"  format="ascii">3 6 9 12 15 18 21 24 27 30 33 36 39 42 45 48 51 54 57 60 63 66 69 72 75 78 81 84 87 90 93 96 99 102 105 108 111 114 117 120 123 126 129 132 135 138 141 144 147 150 153 156 159 162 165 168 171 174 177 180 183 186 189 192 195 198 201 204 207 210 213 216 219 222 225 228 231 234 237 240 243 246 249 252 255 258 261 264 267 270 273 276 279 282 285 288 291 294 297 300 303 306 309 312 315 318 321 324 327 330 333 336 339 342 345 348 351 354 357 360 363 366 369 372 375 378 381 384 387 390 393 396 399 402 405 408 411 414 417 420 423 426 429 432 435 438 441 444 447 450 453 456 459 462 465 468 471 474 477 480 483 486 489 492 495 498 501 504 507 510 513 516 519 522 525 528 531 534 537 540 543 546 549 552 555 558 561 564 567 570 573 576 579 582 585 588 591 594 597 600 603 606 609 612 615 618 621 624 </DataArray>
<DataArray  type="UInt8"  Name="types"  format="ascii">5 5 5 5 5 5 5 5 5 5 5 5 5 5 5 5 5 5 5 5 5 5 5 5 5 5 5 5 5 5 5 5 5 5 5 5 5 5 5 5 5 5 5 5 5 5 5 5 5 5 5 5 5 5 5 5 5 5 5 5 5 5 5 5 5 5 5 5 5 5 5 5 5 5 5 5 5 5 5 5 5 5 5 5 5 5 5 5 5 5 5 5 5 5 5 5 5 5 5 5 5 5 5 5 5 5 5 5 5 5 5 5 5 5 5 5 5 5 5 5 5 5 5 5 5 5 5 5 5 5 5 5 5 5 5 5 5 5 5 5 5 5 5 5 5 5 5 5 5 5 5 5 5 5 5 5 5 5 5 5 5 5 5 5 5 5 5 5 5 5 5 5 5 5 5 5 5 5 5 5 5 5 5 5 5 5 5 5 5 5 5 5 5 5 5 5 5 5 5 5 5 5 5 5 5 5 5 5 </DataArray>
</Cells>
<PointData  Vectors="Displacement"> 
<DataArray  type="Float64"  Name="Displacement"  NumberOfComponents="3" format="ascii">5.9972116115714102e-04 1.5897496007616452e-04 0.0000000000000000e+00  6.4445008620459682e-04 6.4643317245978671e-05 0.0000000000000000e+00  6.5653072727888816e-04 1.1633197837681627e-04 0.0000000000000000e+00  6.4772818858808783e-04 1.5766254233321844e-04 0.0000000000000000e+00  6.3369217621075653e-04 1.9097356518877351e-04 0.0000000000000000e+00  6.1986110855315679e-04 2.1729180910853870e-04 0.0000000000000000e+00  6.0346010032588649e-04 2.3643023205574125e-04 0.0000000000000000e+00  5.9051559700646695e-04 2.4806035839105455e-04 0.0000000000000000e+00  5.7866198630314653e-04 2.5296402049139070e-04 0.0000000000000000e+00  5.6977004710399121e-04 2.5648686119009921e-04 0.0000000000000000e+00  5.5918116574903696e-04 2.5202895594587612e-04 0.0000000000000000e+00  5.5196056138439318e-04 2.4166184955926666e-04 0.0000000000000000e+00  5.4531735587590657e-04 2.3944426832535443e-04 0.0000000000000000e+00  5.3580974693395375e-04 2.3155465091303880e-04 0.0000000000000000e+00  5.3059867611745669e-04 2.2229553054395812e-04 0.0000000000000000e+00  5.2464543277505583e-04 2.1004116493726155e-04 0.0000000000000000e+00  5.2137024135841964e-04 2.0455604205172197e-04 0.0000000000000000e+00  5.1592290711341795e-04 2.0004165410167666e-04 0.0000000000000000e+00  5.1348133595365193e-04 1.9219749815355420e-04 0.0000000000000000e+00  5.1278631160595848e-04 1.8706647029873030e-04 0.0000000000000000e+00  5.1262081346110130e-04 1.8277922520494830e-04 0.0000000000000000e+00  5.1412136764944656e-04 1.7799497661071702e-04 0.0000000000000000e+00  5.1664034047299264e-04 1.7947784903787480e-04 0.0000000000000000e+00  5.1957762265418680e-04 1.8547768196169146e-04 0.0000000000000000e+00  5.2358850838309589e-04 1.9486023631962328e-04 0.0000000000000000e+00  5.3032294379481352e-04 1.9970740366163827e-04 0.0000000000000000e+00  5.4974637175827872e-04 2.6049077176468194e-04 0.0000000000000000e+00  6.3447309549958327e-04 6.1899976897882735e-05 0.0000000000000000e+00  6.3491081582964996e-04 6.9734957803554412e-05 0.0000000000000000e+00  6.2452819907044888e-04 1.1692945690963081e-04 0.0000000000000000e+00  6.1671793136504132e-04 1.6178244749277899e-04 0.0000000000000000e+00  6.0767708446771910e-04 1.9578863370884196e-04 0.0000000000000000e+00  5.9907830258391589e-04 2.2293497469992740e-04 0.0000000000000000e+00  5.9026445393237125e-04 2.4266390864386729e-04 0.0000000000000000e+00  5.8182628061775464e-04 2.5380423419396392e-04 0.0000000000000000e+00  5.7452357741366459e-04 2.5824061700631889e-04 0.0000000000000000e+00  5.6820693884212950e-04 2.6025909249566877e-04 0.0000000000000000e+00  5.6406206953714334e-04 2.5700061991082483e-04 0.0000000000000000e+00  5.5665547007006878e-04 2.4677267244149309e-04 0.0000000000000000e+00  5.4970438190514188e-04 2.4468918149763889e-04 0.0000000000000000e+00  5.4417603773567965e-04 2.3596321574656268e-04 0.0000000000000000e+00  5.3831095919500659e-04 2.2555491156704081e-04 0.0000000000000000e+00  5.3218483633151370e-04 2.1427461480274301e-04 0.0000000000000000e+00  5.2621705122042346e-04 2.0827880245386903e-04 0.0000000000000000e+00  5.2318547558029998e-04 2.0171345780998660e-04 0.0000000000000000e+00  5.2049420775826972e-04 1.9444100337990614e-04 0.0000000000000000e+00  5.1645257044733318e-04 1.8763850301707722e-04 0.0000000000000000e+00  5.1711712018923930e-04 1.8349284705190683e-04 0.0000000000000000e+00  5.1667163793957076e-04 1.7806471830919527e-04 0.0000000000000000e+00  5.1624125864845527e-04 1.7996970497026815e-04 0.0000000000000000e+00  5.1716646451630596e-04 1.8697313520195605e-04 0.0000000000000000e+00  5.1661412133465140e-04 1.9436750500115965e-04 0.0000000000000000e+00  5.1587075628089715e-04 2.0695978456440394e-04 0.0000000000000000e+00  5.1855554996184567e-04 2.3163676304126493e-04 0.0000000000000000e+00  6.0171449247145613e-04 1.9388021890230166e-05 0.0000000000000000e+00  6.0710267769839576e-04 7.5060648953672080e-05 0.0000000000000000e+00  5.9599470207670913e-04 1.2239496758106722e-04 0.0000000000000000e+00  5.8732867981314038e-04 1.6565172016424842e-04 0.0000000000000000e+00  5.8316042589454380e-04 1.9988497148505410e-04 0.0000000000000000e+00  5.7870340508670004e-04 2.2620475735596346e-04 0.0000000000000000e+00  5.7586275827887102e-04 2.4522508469489960e-04 0.0000000000000000e+00  5.7249614861623545e-04 2.5609893046656449e-04 0.0000000000000000e+00  5.6948133537888844e-04 2.6188141805320549e-04 0.0000000000000000e+00  5.6542891651316157e-04 2.6231870735977171e-04 0.0000000000000000e+00  5.6318841377543194e-04 2.5892861424644408e-04 0.0000000000000000e+00  5.5963312571428927e-04 2.5098781661358306e-04 0.0000000000000000e+00  5.5505271190917137e-04 2.4703672010495197e-04 0.0000000000000000e+00  5.5048121720672289e-04 2.3924105607330253e-04 0.0000000000000000e+00  5.4433320014737841e-04 2.2864166075206734e-04 0.0000000000000000e+00  5.3793533091750652e-04 2.1806786608156753e-04 0.0000000000000000e+00  5.3274135221952892e-04 2.1117526259690131e-04 0.0000000000000000e+00  5.2892120006502847e-04 2.0254108362289069e-04 0.0000000000000000e+00  5.2618816102625269e-04 1.9722047032495231e-04 0.0000000000000000e+00  5.2198158357979834e-04 1.8928565161353071e-04 0.0000000000000000e+00  5.2022659498625996e-04 1.8370189984407364e-04 0.0000000000000000e+00  5.1866800215383995e-04 1.7967664030946052e-04 0.0000000000000000e+00  5.1514207163944330e-04 1.8215313491753220e-04 0.0000000000000000e+00  5.1422534222129025e-04 1.8801337747877697e-04 0.0000000000000000e+00  5.1112032267365201e-04 1.9654797089558340e-04 0.0000000000000000e+00  5.0991911531500381e-04 2.0873483772625972e-04 0.0000000000000000e+00  5.1291152266255040e-04 2.2078877156455837e-04 0.0000000000000000e+00  5.4966119541581494e-04 -2.1175160886501156e-05 0.0000000000000000e+00  5.6011746964572146e-04 7.2985290838567781e-05 0.0000000000000000e+00  5.5801024144048182e-04 1.2870692239918042e-04 0.0000000000000000e+00  5.5659051509477806e-04 1.6782399417731935e-04 0.0000000000000000e+00  5.5732506914466298e-04 1.9986793291985137e-04 0.0000000000000000e+00  5.6029601836809313e-04 2.2566546688426335e-04 0.0000000000000000e+00  5.6230995361335905e-04 2.4501534992799675e-04 0.0000000000000000e+00  5.6236016072858119e-04 2.5540467074897127e-04 0.0000000000000000e+00  5.6486700300312524e-04 2.6233181114818668e-04 0.0000000000000000e+00  5.6423654539498327e-04 2.6325037572316799e-04 0.0000000000000000e+00  5.6349538834474689e-04 2.5965107479667462e-04 0.0000000000000000e+00  5.6204365071051046e-04 2.5206755164258060e-04 0.0000000000000000e+00  5.5957035940044984e-04 2.4882412669523810e-04 0.0000000000000000e+00  5.5471823316477541e-04 2.4151430222669286e-04 0.0000000000000000e+00  5.4944894782996893e-04 2.3185643774618569e-04 0.0000000000000000e+00  5.4447885832903018e-04 2.2024935098539014e-04 0.0000000000000000e+00  5.4092160830251609e-04 2.1294272082171382e-04 0.0000000000000000e+00  5.3588050451037052e-04 2.0406576112642482e-04 0.0000000000000000e+00  5.3144662571144889e-04 1.9867581661498878e-04 0.0000000000000000e+00  5.2716449693588881e-04 1.9100285442475980e-04 0.0000000000000000e+00  5.2210538660330886e-04 1.8426214904342734e-04 0.0000000000000000e+00  5.1933839669906091e-04 1.8034117174608831e-04 0.0000000000000000e+00  5.1343736133573645e-04 1.8461841756299698e-04 0.0000000000000000e+00  5.0980105275775188e-04 1.8957337208893869e-04 0.0000000000000000e+00  5.0712046660003488e-04 1.9707150446373963e-04 0.0000000000000000e+00  5.0805898837470904e-04 2.0739255473007577e-04 0.0000000000000000e+00  5.0856039951501788e-04 2.1757612024098867e-04 0.0000000000000000e+00  4.2669988378572364e-04 -1.1671171792761235e-04 0.0000000000000000e+00  4.8961394461212243e-04 6.8510237282194754e-05 0.0000000000000000e+00  5.1505029311549376e-04 1.2548811012893257e-04 0.0000000000000000e+00  5.2628679680504246e-04 1.6621102914144613e-04 0.0000000000000000e+00  5.3378779599380026e-04 1.9697535809969568e-04 0.0000000000000000e+00  5.4163663892892676e-04 2.2237332002991868e-04 0.0000000000000000e+00  5.4880747061202191e-04 2.4418718706483090e-04 0.0000000000000000e+00  5.5430796691430218e-04 2.5383611782952707e-04 0.0000000000000000e+00  5.5943989987222579e-04 2.5991084448091350e-04 0.0000000000000000e+00  5.6427121443980671e-04 2.6417503466706263e-04 0.0000000000000000e+00  5.6721408071984760e-04 2.5982441220754682e-04 0.0000000000000000e+00  5.6579180510837694e-04 2.5310408554908012e-04 0.0000000000000000e+00  5.6321259306476960e-04 2.5135234703777768e-04 0.0000000000000000e+00  5.6012059646870743e-04 2.4436033038546117e-04 0.0000000000000000e+00  5.5657448240988786e-04 2.3460029104271471e-04 0.0000000000000000e+00  5.5218243584825486e-04 2.2286096082479821e-04 0.0000000000000000e+00  5.4716039609676562e-04 2.1477543869573474e-04 0.0000000000000000e+00  5.4274127087688365e-04 2.0741241072241325e-04 0.0000000000000000e+00  5.3700772750463969e-04 2.0162361572216157e-04 0.0000000000000000e+00  5.3292930269003918e-04 1.9399236313869485e-04 0.0000000000000000e+00  5.2549667192889260e-04 1.8762017891249191e-04 0.0000000000000000e+00  5.1727528538417428e-04 1.8298985080228463e-04 0.0000000000000000e+00  5.1078210350111988e-04 1.8817862262241790e-04 0.0000000000000000e+00  5.0611088918703308e-04 1.9147330916376563e-04 0.0000000000000000e+00  5.0293309196747617e-04 1.9814040925347841e-04 0.0000000000000000e+00  5.0052985842614374e-04 2.0757689468719822e-04 0.0000000000000000e+00  5.0043488210005100e-04 2.1819716889585794e-04 0.0000000000000000e+00  </DataArray> 
</PointData> 
</Piece>
</UnstructuredGrid>
</VTKFile>