<?xml version="1.0"?>
<VTKFile type="UnstructuredGrid"  version="0.1"  >
<UnstructuredGrid>
<Piece  NumberOfPoints="135" NumberOfCells="208">
<Points>
<DataArray  type="Float64"  NumberOfComponents="3"  format="ascii">1 1 0  1.076923076923077 1 0  1.153846153846154 1 0  1.230769230769231 1 0  1.307692307692308 1 0  1.384615384615385 1 0  1.461538461538462 1 0  1.538461538461538 1 0  1.615384615384615 1 0  1.692307692307692 1 0  1.769230769230769 1 0  1.846153846153846 1 0  1.923076923076923 1 0  2 1 0  2.076923076923077 1 0  2.153846153846154 1 0  2.230769230769231 1 0  2.307692307692307 1 0  2.384615384615385 1 0  2.461538461538462 1 0  2.538461538461538 1 0  2.615384615384615 1 0  2.692307692307693 1 0  2.769230769230769 1 0  2.846153846153846 1 0  2.923076923076923 1 0  3 1 0  1 1.0625 0  1.076923076923077 1.0625 0  1.153846153846154 1.0625 0  1.230769230769231 1.0625 0  1.307692307692308 1.0625 0  1.384615384615385 1.0625 0  1.461538461538462 1.0625 0  1.538461538461538 1.0625 0  1.615384615384615 1.0625 0  1.692307692307692 1.0625 0  1.769230769230769 1.0625 0  1.846153846153846 1.0625 0  1.923076923076923 1.0625 0  2 1.0625 0  2.076923076923077 1.0625 0  2.153846153846154 1.0625 0  2.230769230769231 1.0625 0  2.307692307692307 1.0625 0  2.384615384615385 1.0625 0  2.461538461538462 1.0625 0  2.538461538461538 1.0625 0  2.615384615384615 1.0625 0  2.692307692307693 1.0625 0  2.769230769230769 1.0625 0  2.846153846153846 1.0625 0  2.923076923076923 1.0625 0  3 1.0625 0  1 1.125 0  1.076923076923077 1.125 0  1.153846153846154 1.125 0  1.230769230769231 1.125 0  1.307692307692308 1.125 0  1.384615384615385 1.125 0  1.461538461538462 1.125 0  1.538461538461538 1.125 0  1.615384615384615 1.125 0  1.692307692307692 1.125 0  1.769230769230769 1.125 0  1.846153846153846 1.125 0  1.923076923076923 1.125 0  2 1.125 0  2.076923076923077 1.125 0  2.153846153846154 1.125 0  2.230769230769231 1.125 0  2.307692307692307 1.125 0  2.384615384615385 1.125 0  2.461538461538462 1.125 0  2.538461538461538 1.125 0  2.615384615384615 1.125 0  2.692307692307693 1.125 0  2.769230769230769 1.125 0  2.846153846153846 1.125 0  2.923076923076923 1.125 0  3 1.125 0  1 1.1875 0  1.076923076923077 1.1875 0  1.153846153846154 1.1875 0  1.230769230769231 1.1875 0  1.307692307692308 1.1875 0  1.384615384615385 1.1875 0  1.461538461538462 1.1875 0  1.538461538461538 1.1875 0  1.615384615384615 1.1875 0  1.692307692307692 1.1875 0  1.769230769230769 1.1875 0  1.846153846153846 1.1875 0  1.923076923076923 1.1875 0  2 1.1875 0  2.076923076923077 1.1875 0  2.153846153846154 1.1875 0  2.230769230769231 1.1875 0  2.307692307692307 1.1875 0  2.384615384615385 1.1875 0  2.461538461538462 1.1875 0  2.538461538461538 1.1875 0  2.615384615384615 1.1875 0  2.692307692307693 1.1875 0  2.769230769230769 1.1875 0  2.846153846153846 1.1875 0  2.923076923076923 1.1875 0  3 1.1875 0  1 1.25 0  1.076923076923077 1.25 0  1.153846153846154 1.25 0  1.230769230769231 1.25 0  1.307692307692308 1.25 0  1.384615384615385 1.25 0  1.461538461538462 1.25 0  1.538461538461538 1.25 0  1.615384615384615 1.25 0  1.692307692307692 1.25 0  1.769230769230769 1.25 0  1.846153846153846 1.25 0  1.923076923076923 1.25 0  2 1.25 0  2.076923076923077 1.25 0  2.153846153846154 1.25 0  2.230769230769231 1.25 0  2.307692307692307 1.25 0  2.384615384615385 1.25 0  2.461538461538462 1.25 0  2.538461538461538 1.25 0  2.615384615384615 1.25 0  2.692307692307693 1.25 0  2.769230769230769 1.25 0  2.846153846153846 1.25 0  2.923076923076923 1.25 0  3 1.25 0  </DataArray>
</Points>
<Cells>
<DataArray  type="UInt32"  Name="connectivity"  format="ascii">0 1 28  0 27 28  1 2 29  1 28 29  2 3 30  2 29 30  3 4 31  3 30 31  4 5 32  4 31 32  5 6 33  5 32 33  6 7 34  6 33 34  7 8 35  7 34 35  8 9 36  8 35 36  9 10 37  9 36 37  10 11 38  10 37 38  11 12 39  11 38 39  12 13 40  12 39 40  13 14 41  13 40 41  14 15 42  14 41 42  15 16 43  15 42 43  16 17 44  16 43 44  17 18 45  17 44 45  18 19 46  18 45 46  19 20 47  19 46 47  20 21 48  20 47 48  21 22 49  21 48 49  22 23 50  22 49 50  23 24 51  23 50 51  24 25 52  24 51 52  25 26 53  25 52 53  27 28 55  27 54 55  28 29 56  28 55 56  29 30 57  29 56 57  30 31 58  30 57 58  31 32 59  31 58 59  32 33 60  32 59 60  33 34 61  33 60 61  34 35 62  34 61 62  35 36 63  35 62 63  36 37 64  36 63 64  37 38 65  37 64 65  38 39 66  38 65 66  39 40 67  39 66 67  40 41 68  40 67 68  41 42 69  41 68 69  42 43 70  42 69 70  43 44 71  43 70 71  44 45 72  44 71 72  45 46 73  45 72 73  46 47 74  46 73 74  47 48 75  47 74 75  48 49 76  48 75 76  49 50 77  49 76 77  50 51 78  50 77 78  51 52 79  51 78 79  52 53 80  52 79 80  54 55 82  54 81 82  55 56 83  55 82 83  56 57 84  56 83 84  57 58 85  57 84 85  58 59 86  58 85 86  59 60 87  59 86 87  60 61 88  60 87 88  61 62 89  61 88 89  62 63 90  62 89 90  63 64 91  63 90 91  64 65 92  64 91 92  65 66 93  65 92 93  66 67 94  66 93 94  67 68 95  67 94 95  68 69 96  68 95 96  69 70 97  69 96 97  70 71 98  70 97 98  71 72 99  71 98 99  72 73 100  72 99 100  73 74 101  73 100 101  74 75 102  74 101 102  75 76 103  75 102 103  76 77 104  76 103 104  77 78 105  77 104 105  78 79 106  78 105 106  79 80 107  79 106 107  81 82 109  81 108 109  82 83 110  82 109 110  83 84 111  83 110 111  84 85 112  84 111 112  85 86 113  85 112 113  86 87 114  86 113 114  87 88 115  87 114 115  88 89 116  88 115 116  89 90 117  89 116 117  90 91 118  90 117 118  91 92 119  91 118 119  92 93 120  92 119 120  93 94 121  93 120 121  94 95 122  94 121 122  95 96 123  95 122 123  96 97 124  96 123 124  97 98 125  97 124 125  98 99 126  98 125 126  99 100 127  99 126 127  100 101 128  100 127 128  101 102 129  101 128 129  102 103 130  102 129 130  103 104 131  103 130 131  104 105 132  104 131 132  105 106 133  105 132 133  106 107 134  106 133 134  </DataArray>
<DataArray  type="UInt32"  Name="offsets"  format="ascii">3 6 9 12 15 18 21 24 27 30 33 36 39 42 45 48 51 54 57 60 63 66 69 72 75 78 81 84 87 90 93 96 99 102 105 108 111 114 117 120 123 126 129 132 135 138 141 144 147 150 153 156 159 162 165 168 171 174 177 180 183 186 189 192 195 198 201 204 207 210 213 216 219 222 225 228 231 234 237 240 243 246 249 252 255 258 261 264 267 270 273 276 279 282 285 288 291 294 297 300 303 306 309 312 315 318 321 324 327 330 333 336 339 342 345 348 351 354 357 360 363 366 369 372 375 378 381 384 387 390 393 396 399 402 405 408 411 414 417 420 423 426 429 432 435 438 441 444 447 450 453 456 459 462 465 468 471 474 477 480 483 486 489 492 495 498 501 504 507 510 513 516 519 522 525 528 531 534 537 540 543 546 549 552 555 558 561 564 567 570 573 576 579 582 585 588 591 594 597 600 603 606 609 612 615 618 621 624 </DataArray>
<DataArray  type="UInt8"  Name="types"  format="ascii">5 5 5 5 5 5 5 5 5 5 5 5 5 5 5 5 5 5 5 5 5 5 5 5 5 5 5 5 5 5 5 5 5 5 5 5 5 5 5 5 5 5 5 5 5 5 5 5 5 5 5 5 5 5 5 5 5 5 5 5 5 5 5 5 5 5 5 5 5 5 5 5 5 5 5 5 5 5 5 5 5 5 5 5 5 5 5 5 5 5 5 5 5 5 5 5 5 5 5 5 5 5 5 5 5 5 5 5 5 5 5 5 5 5 5 5 5 5 5 5 5 5 5 5 5 5 5 5 5 5 5 5 5 5 5 5 5 5 5 5 5 5 5 5 5 5 5 5 5 5 5 5 5 5 5 5 5 5 5 5 5 5 5 5 5 5 5 5 5 5 5 5 5 5 5 5 5 5 5 5 5 5 5 5 5 5 5 5 5 5 5 5 5 5 5 5 5 5 5 5 5 5 5 5 5 5 5 5 </DataArray>
</Cells>
<PointData  Vectors="Displacement"> 
<DataArray  type="Float64"  Name="Displacement"  NumberOfComponents="3" format="ascii">3.6783062228923672e-04 1.8146442644171099e-04 0.0000000000000000e+00  4.1526877596255186e-04 7.0639519209178458e-05 0.0000000000000000e+00  4.3223657031377278e-04 1.1391394495277897e-04 0.0000000000000000e+00  4.2852877228293130e-04 1.4766431681509059e-04 0.0000000000000000e+00  4.1894404544677561e-04 1.7485017116593992e-04 0.0000000000000000e+00  4.0812262454346856e-04 1.9536190684479269e-04 0.0000000000000000e+00  3.9680876940504587e-04 2.0618972144919974e-04 0.0000000000000000e+00  3.8908578632605251e-04 2.0872922691445836e-04 0.0000000000000000e+00  3.8187793437029899e-04 2.1119858482710819e-04 0.0000000000000000e+00  3.7310106623109155e-04 2.0894202702867053e-04 0.0000000000000000e+00  3.6512473316695280e-04 2.0640140135357911e-04 0.0000000000000000e+00  3.5889412555956384e-04 2.0158909330170120e-04 0.0000000000000000e+00  3.5349774095659131e-04 1.9370802470973714e-04 0.0000000000000000e+00  3.4926574956580024e-04 1.8592536195323928e-04 0.0000000000000000e+00  3.4501594470969665e-04 1.7983154410711416e-04 0.0000000000000000e+00  3.4166839758168144e-04 1.7247113181554204e-04 0.0000000000000000e+00  3.3990335157899553e-04 1.6161175875928046e-04 0.0000000000000000e+00  3.4052605743169971e-04 1.5626051027724187e-04 0.0000000000000000e+00  3.3936947602873364e-04 1.4849076411383333e-04 0.0000000000000000e+00  3.4111333193002376e-04 1.4013576934653624e-04 0.0000000000000000e+00  3.4279794926734528e-04 1.3564994949115733e-04 0.0000000000000000e+00  3.4388702974945959e-04 1.3504848080538888e-04 0.0000000000000000e+00  3.4431467474899612e-04 1.3631652471212869e-04 0.0000000000000000e+00  3.4703380641207450e-04 1.3861019564632447e-04 0.0000000000000000e+00  3.5191261479712739e-04 1.4310421016976358e-04 0.0000000000000000e+00  3.5971371198082624e-04 1.3474912556746081e-04 0.0000000000000000e+00  3.8267619568006848e-04 1.9411201081072867e-04 0.0000000000000000e+00  4.1476195625602308e-04 8.0294945529047677e-05 0.0000000000000000e+00  4.1554436928113373e-04 7.5142321724840934e-05 0.0000000000000000e+00  4.0838663543330445e-04 1.1224590237699272e-04 0.0000000000000000e+00  4.0407994829549758e-04 1.4779956856853747e-04 0.0000000000000000e+00  3.9915199222144101e-04 1.7856730197411021e-04 0.0000000000000000e+00  3.9311013926300191e-04 1.9819379230417411e-04 0.0000000000000000e+00  3.8958633580531572e-04 2.0861446072073127e-04 0.0000000000000000e+00  3.8595235246527578e-04 2.1107167670138859e-04 0.0000000000000000e+00  3.8022615045684073e-04 2.1509962699473392e-04 0.0000000000000000e+00  3.7354420164897363e-04 2.1230934786060966e-04 0.0000000000000000e+00  3.6851414811539009e-04 2.1035041383730626e-04 0.0000000000000000e+00  3.6217332993495455e-04 2.0422615470327410e-04 0.0000000000000000e+00  3.5848933403647733e-04 1.9672446207217266e-04 0.0000000000000000e+00  3.5489027896622036e-04 1.8838595450656814e-04 0.0000000000000000e+00  3.5184941725360520e-04 1.8188995504424583e-04 0.0000000000000000e+00  3.4999825411397494e-04 1.7350055729668860e-04 0.0000000000000000e+00  3.4722211375073735e-04 1.6308921657939799e-04 0.0000000000000000e+00  3.4596495081203450e-04 1.5607653344046400e-04 0.0000000000000000e+00  3.4669809053996771e-04 1.4804987726506089e-04 0.0000000000000000e+00  3.4628064967858445e-04 1.3866171272262717e-04 0.0000000000000000e+00  3.4753877356053246e-04 1.3594576623340379e-04 0.0000000000000000e+00  3.4584644859404079e-04 1.3620921221673755e-04 0.0000000000000000e+00  3.4425412012997894e-04 1.3636973753838500e-04 0.0000000000000000e+00  3.4498792265020021e-04 1.3781047050893098e-04 0.0000000000000000e+00  3.4819245048667616e-04 1.4027658195399801e-04 0.0000000000000000e+00  3.4867273770035448e-04 1.4316300290592737e-04 0.0000000000000000e+00  3.4733287371799910e-04 1.6469548854304678e-04 0.0000000000000000e+00  3.9115327351843830e-04 3.8030078296348239e-05 0.0000000000000000e+00  3.9772471682807023e-04 7.9659015010696222e-05 0.0000000000000000e+00  3.9048305520663419e-04 1.1549187495057438e-04 0.0000000000000000e+00  3.8332030353514871e-04 1.5100686328730460e-04 0.0000000000000000e+00  3.8095284643718504e-04 1.8053428625757078e-04 0.0000000000000000e+00  3.7985131375179414e-04 1.9855636199990283e-04 0.0000000000000000e+00  3.8100244854802242e-04 2.0845459899801656e-04 0.0000000000000000e+00  3.8018227617956762e-04 2.1281365388916106e-04 0.0000000000000000e+00  3.7760044219071825e-04 2.1734048681310586e-04 0.0000000000000000e+00  3.7317023216062463e-04 2.1501488881202298e-04 0.0000000000000000e+00  3.7068558361070695e-04 2.1369241741640445e-04 0.0000000000000000e+00  3.6634868015426387e-04 2.0707254461076888e-04 0.0000000000000000e+00  3.6270889057685407e-04 1.9867532488936586e-04 0.0000000000000000e+00  3.6074668054466208e-04 1.8976850623920140e-04 0.0000000000000000e+00  3.5903299989486619e-04 1.8300295759137992e-04 0.0000000000000000e+00  3.5757857915389444e-04 1.7458528044197921e-04 0.0000000000000000e+00  3.5465576880043553e-04 1.6543873174749228e-04 0.0000000000000000e+00  3.5364338982006799e-04 1.5575371372853296e-04 0.0000000000000000e+00  3.5199554544938902e-04 1.4858811896012838e-04 0.0000000000000000e+00  3.4987295236201113e-04 1.3840307997822860e-04 0.0000000000000000e+00  3.4962363402111412e-04 1.3559482684053831e-04 0.0000000000000000e+00  3.4661877488991746e-04 1.3795754682068072e-04 0.0000000000000000e+00  3.4420718241238209e-04 1.3804795889213285e-04 0.0000000000000000e+00  3.4535889137827700e-04 1.3863769250675051e-04 0.0000000000000000e+00  3.4473793463863311e-04 1.4034097207185780e-04 0.0000000000000000e+00  3.4368652101874914e-04 1.4721260515526184e-04 0.0000000000000000e+00  3.4305838498971652e-04 1.5456655977896756e-04 0.0000000000000000e+00  3.5287610841207854e-04 -7.9969805372470781e-07 0.0000000000000000e+00  3.6305137615879886e-04 7.6894786557655121e-05 0.0000000000000000e+00  3.6098918644541649e-04 1.1965163268508704e-04 0.0000000000000000e+00  3.6015563831178583e-04 1.5246748086246973e-04 0.0000000000000000e+00  3.6338267717635545e-04 1.7919313298354298e-04 0.0000000000000000e+00  3.6693436194471234e-04 1.9731507868781168e-04 0.0000000000000000e+00  3.7050546226026460e-04 2.0635837373968568e-04 0.0000000000000000e+00  3.7377702931908421e-04 2.1283359223498913e-04 0.0000000000000000e+00  3.7423925080136932e-04 2.1751797321254679e-04 0.0000000000000000e+00  3.7350141914075134e-04 2.1657653126532194e-04 0.0000000000000000e+00  3.7179253192212432e-04 2.1516162389269145e-04 0.0000000000000000e+00  3.7002176854205319e-04 2.0874993478198317e-04 0.0000000000000000e+00  3.6897669920635723e-04 2.0060327037866381e-04 0.0000000000000000e+00  3.6665370227101813e-04 1.9027218394691872e-04 0.0000000000000000e+00  3.6368462017563488e-04 1.8366454836008317e-04 0.0000000000000000e+00  3.6321470392922719e-04 1.7490187274959610e-04 0.0000000000000000e+00  3.6164421908457237e-04 1.6663669078902755e-04 0.0000000000000000e+00  3.5900894204521719e-04 1.5594773998907520e-04 0.0000000000000000e+00  3.5814609875595773e-04 1.4874990112391946e-04 0.0000000000000000e+00  3.5603718940720977e-04 1.3788989495478829e-04 0.0000000000000000e+00  3.5214439703001215e-04 1.3659259101736322e-04 0.0000000000000000e+00  3.4651703543697363e-04 1.4122968633180984e-04 0.0000000000000000e+00  3.4311199999791477e-04 1.3898496056997283e-04 0.0000000000000000e+00  3.4227635219687065e-04 1.3782227128200154e-04 0.0000000000000000e+00  3.4276512447924508e-04 1.4240339616823451e-04 0.0000000000000000e+00  3.4051550257223101e-04 1.4783600989272622e-04 0.0000000000000000e+00  3.4029210871644580e-04 1.5285457894244055e-04 0.0000000000000000e+00  2.4198274623190376e-04 -9.8991849481931034e-05 0.0000000000000000e+00  3.0465878640921864e-04 7.2439258427828306e-05 0.0000000000000000e+00  3.2700132269707430e-04 1.1729756625636481e-04 0.0000000000000000e+00  3.3666626198585722e-04 1.4983603455323173e-04 0.0000000000000000e+00  3.4613131459878865e-04 1.7551559794896948e-04 0.0000000000000000e+00  3.5455525708227327e-04 1.9350731451586232e-04 0.0000000000000000e+00  3.6300859266817095e-04 2.0390671976560696e-04 0.0000000000000000e+00  3.6763712782607717e-04 2.1140750446717880e-04 0.0000000000000000e+00  3.7160209214726059e-04 2.1628870672911869e-04 0.0000000000000000e+00  3.7371883079556222e-04 2.1698497696347310e-04 0.0000000000000000e+00  3.7464891758567199e-04 2.1612648438139277e-04 0.0000000000000000e+00  3.7509757388569706e-04 2.0902680988119573e-04 0.0000000000000000e+00  3.7480488719309981e-04 2.0043938502995229e-04 0.0000000000000000e+00  3.7382291488662219e-04 1.9148930152258599e-04 0.0000000000000000e+00  3.6961041772285797e-04 1.8525349542160665e-04 0.0000000000000000e+00  3.6975614308518769e-04 1.7495141886812257e-04 0.0000000000000000e+00  3.6817403386689223e-04 1.6711779169150366e-04 0.0000000000000000e+00  3.6746048391034415e-04 1.5818851909660405e-04 0.0000000000000000e+00  3.6459581481732716e-04 1.4893063151138312e-04 0.0000000000000000e+00  3.6228960414263415e-04 1.4050856944720208e-04 0.0000000000000000e+00  3.5270131926100546e-04 1.4082735498896040e-04 0.0000000000000000e+00  3.4849143058370561e-04 1.4495786619752519e-04 0.0000000000000000e+00  3.4484865740989370e-04 1.3972194469834666e-04 0.0000000000000000e+00  3.4003994399944495e-04 1.3892639936118715e-04 0.0000000000000000e+00  3.3645527409745940e-04 1.4385291286989960e-04 0.0000000000000000e+00  3.3699634922013756e-04 1.4790278116166820e-04 0.0000000000000000e+00  3.3867938610248797e-04 1.5214176834564081e-04 0.0000000000000000e+00  </DataArray> 
</PointData> 
</Piece>
</UnstructuredGrid>
</VTKFile>