<?xml version="1.0"?>
<VTKFile type="UnstructuredGrid"  version="0.1"  >
<UnstructuredGrid>
<Piece  NumberOfPoints="135" NumberOfCells="208">
<Points>
<DataArray  type="Float64"  NumberOfComponents="3"  format="ascii">1 1 0  1.076923076923077 1 0  1.153846153846154 1 0  1.230769230769231 1 0  1.307692307692308 1 0  1.384615384615385 1 0  1.461538461538462 1 0  1.538461538461538 1 0  1.615384615384615 1 0  1.692307692307692 1 0  1.769230769230769 1 0  1.846153846153846 1 0  1.923076923076923 1 0  2 1 0  2.076923076923077 1 0  2.153846153846154 1 0  2.230769230769231 1 0  2.307692307692307 1 0  2.384615384615385 1 0  2.461538461538462 1 0  2.538461538461538 1 0  2.615384615384615 1 0  2.692307692307693 1 0  2.769230769230769 1 0  2.846153846153846 1 0  2.923076923076923 1 0  3 1 0  1 1.0625 0  1.076923076923077 1.0625 0  1.153846153846154 1.0625 0  1.230769230769231 1.0625 0  1.307692307692308 1.0625 0  1.384615384615385 1.0625 0  1.461538461538462 1.0625 0  1.538461538461538 1.0625 0  1.615384615384615 1.0625 0  1.692307692307692 1.0625 0  1.769230769230769 1.0625 0  1.846153846153846 1.0625 0  1.923076923076923 1.0625 0  2 1.0625 0  2.076923076923077 1.0625 0  2.153846153846154 1.0625 0  2.230769230769231 1.0625 0  2.307692307692307 1.0625 0  2.384615384615385 1.0625 0  2.461538461538462 1.0625 0  2.538461538461538 1.0625 0  2.615384615384615 1.0625 0  2.692307692307693 1.0625 0  2.769230769230769 1.0625 0  2.846153846153846 1.0625 0  2.923076923076923 1.0625 0  3 1.0625 0  1 1.125 0  1.076923076923077 1.125 0  1.153846153846154 1.125 0  1.230769230769231 1.125 0  1.307692307692308 1.125 0  1.384615384615385 1.125 0  1.461538461538462 1.125 0  1.538461538461538 1.125 0  1.615384615384615 1.125 0  1.692307692307692 1.125 0  1.769230769230769 1.125 0  1.846153846153846 1.125 0  1.923076923076923 1.125 0  2 1.125 0  2.076923076923077 1.125 0  2.153846153846154 1.125 0  2.230769230769231 1.125 0  2.307692307692307 1.125 0  2.384615384615385 1.125 0  2.461538461538462 1.125 0  2.538461538461538 1.125 0  2.615384615384615 1.125 0  2.692307692307693 1.125 0  2.769230769230769 1.125 0  2.846153846153846 1.125 0  2.923076923076923 1.125 0  3 1.125 0  1 1.1875 0  1.076923076923077 1.1875 0  1.153846153846154 1.1875 0  1.230769230769231 1.1875 0  1.307692307692308 1.1875 0  1.384615384615385 1.1875 0  1.461538461538462 1.1875 0  1.538461538461538 1.1875 0  1.615384615384615 1.1875 0  1.692307692307692 1.1875 0  1.769230769230769 1.1875 0  1.846153846153846 1.1875 0  1.923076923076923 1.1875 0  2 1.1875 0  2.076923076923077 1.1875 0  2.153846153846154 1.1875 0  2.230769230769231 1.1875 0  2.307692307692307 1.1875 0  2.384615384615385 1.1875 0  2.461538461538462 1.1875 0  2.538461538461538 1.1875 0  2.615384615384615 1.1875 0  2.692307692307693 1.1875 0  2.769230769230769 1.1875 0  2.846153846153846 1.1875 0  2.923076923076923 1.1875 0  3 1.1875 0  1 1.25 0  1.076923076923077 1.25 0  1.153846153846154 1.25 0  1.230769230769231 1.25 0  1.307692307692308 1.25 0  1.384615384615385 1.25 0  1.461538461538462 1.25 0  1.538461538461538 1.25 0  1.615384615384615 1.25 0  1.692307692307692 1.25 0  1.769230769230769 1.25 0  1.846153846153846 1.25 0  1.923076923076923 1.25 0  2 1.25 0  2.076923076923077 1.25 0  2.153846153846154 1.25 0  2.230769230769231 1.25 0  2.307692307692307 1.25 0  2.384615384615385 1.25 0  2.461538461538462 1.25 0  2.538461538461538 1.25 0  2.615384615384615 1.25 0  2.692307692307693 1.25 0  2.769230769230769 1.25 0  2.846153846153846 1.25 0  2.923076923076923 1.25 0  3 1.25 0  </DataArray>
</Points>
<Cells>
<DataArray  type="UInt32"  Name="connectivity"  format="ascii">0 1 28  0 27 28  1 2 29  1 28 29  2 3 30  2 29 30  3 4 31  3 30 31  4 5 32  4 31 32  5 6 33  5 32 33  6 7 34  6 33 34  7 8 35  7 34 35  8 9 36  8 35 36  9 10 37  9 36 37  10 11 38  10 37 38  11 12 39  11 38 39  12 13 40  12 39 40  13 14 41  13 40 41  14 15 42  14 41 42  15 16 43  15 42 43  16 17 44  16 43 44  17 18 45  17 44 45  18 19 46  18 45 46  19 20 47  19 46 47  20 21 48  20 47 48  21 22 49  21 48 49  22 23 50  22 49 50  23 24 51  23 50 51  24 25 52  24 51 52  25 26 53  25 52 53  27 28 55  27 54 55  28 29 56  28 55 56  29 30 57  29 56 57  30 31 58  30 57 58  31 32 59  31 58 59  32 33 60  32 59 60  33 34 61  33 60 61  34 35 62  34 61 62  35 36 63  35 62 63  36 37 64  36 63 64  37 38 65  37 64 65  38 39 66  38 65 66  39 40 67  39 66 67  40 41 68  40 67 68  41 42 69  41 68 69  42 43 70  42 69 70  43 44 71  43 70 71  44 45 72  44 71 72  45 46 73  45 72 73  46 47 74  46 73 74  47 48 75  47 74 75  48 49 76  48 75 76  49 50 77  49 76 77  50 51 78  50 77 78  51 52 79  51 78 79  52 53 80  52 79 80  54 55 82  54 81 82  55 56 83  55 82 83  56 57 84  56 83 84  57 58 85  57 84 85  58 59 86  58 85 86  59 60 87  59 86 87  60 61 88  60 87 88  61 62 89  61 88 89  62 63 90  62 89 90  63 64 91  63 90 91  64 65 92  64 91 92  65 66 93  65 92 93  66 67 94  66 93 94  67 68 95  67 94 95  68 69 96  68 95 96  69 70 97  69 96 97  70 71 98  70 97 98  71 72 99  71 98 99  72 73 100  72 99 100  73 74 101  73 100 101  74 75 102  74 101 102  75 76 103  75 102 103  76 77 104  76 103 104  77 78 105  77 104 105  78 79 106  78 105 106  79 80 107  79 106 107  81 82 109  81 108 109  82 83 110  82 109 110  83 84 111  83 110 111  84 85 112  84 111 112  85 86 113  85 112 113  86 87 114  86 113 114  87 88 115  87 114 115  88 89 116  88 115 116  89 90 117  89 116 117  90 91 118  90 117 118  91 92 119  91 118 119  92 93 120  92 119 120  93 94 121  93 120 121  94 95 122  94 121 122  95 96 123  95 122 123  96 97 124  96 123 124  97 98 125  97 124 125  98 99 126  98 125 126  99 100 127  99 126 127  100 101 128  100 127 128  101 102 129  101 128 129  102 103 130  102 129 130  103 104 131  103 130 131  104 105 132  104 131 132  105 106 133  105 132 133  106 107 134  106 133 134  </DataArray>
<DataArray  type="UInt32"  Name="offsets"  format="ascii">3 6 9 12 15 18 21 24 27 30 33 36 39 42 45 48 51 54 57 60 63 66 69 72 75 78 81 84 87 90 93 96 99 102 105 108 111 114 117 120 123 126 129 132 135 138 141 144 147 150 153 156 159 162 165 168 171 174 177 180 183 186 189 192 195 198 201 204 207 210 213 216 219 222 225 228 231 234 237 240 243 246 249 252 255 258 261 264 267 270 273 276 279 282 285 288 291 294 297 300 303 306 309 312 315 318 321 324 327 330 333 336 339 342 345 348 351 354 357 360 363 366 369 372 375 378 381 384 387 390 393 396 399 402 405 408 411 414 417 420 423 426 429 432 435 438 441 444 447 450 453 456 459 462 465 468 471 474 477 480 483 486 489 492 495 498 501 504 507 510 513 516 519 522 525 528 531 534 537 540 543 546 549 552 555 558 561 564 567 570 573 576 579 582 585 588 591 594 597 600 603 606 609 612 615 618 621 624 </DataArray>
<DataArray  type="UInt8"  Name="types"  format="ascii">5 5 5 5 5 5 5 5 5 5 5 5 5 5 5 5 5 5 5 5 5 5 5 5 5 5 5 5 5 5 5 5 5 5 5 5 5 5 5 5 5 5 5 5 5 5 5 5 5 5 5 5 5 5 5 5 5 5 5 5 5 5 5 5 5 5 5 5 5 5 5 5 5 5 5 5 5 5 5 5 5 5 5 5 5 5 5 5 5 5 5 5 5 5 5 5 5 5 5 5 5 5 5 5 5 5 5 5 5 5 5 5 5 5 5 5 5 5 5 5 5 5 5 5 5 5 5 5 5 5 5 5 5 5 5 5 5 5 5 5 5 5 5 5 5 5 5 5 5 5 5 5 5 5 5 5 5 5 5 5 5 5 5 5 5 5 5 5 5 5 5 5 5 5 5 5 5 5 5 5 5 5 5 5 5 5 5 5 5 5 5 5 5 5 5 5 5 5 5 5 5 5 5 5 5 5 5 5 </DataArray>
</Cells>
<PointData  Vectors="Displacement"> 
<DataArray  type="Float64"  Name="Displacement"  NumberOfComponents="3" format="ascii">8.5234303909579256e-05 8.3965895244232885e-05 0.0000000000000000e+00  9.7671139973491586e-05 1.9056336151093291e-05 0.0000000000000000e+00  1.0145203006302849e-04 4.9618678582057737e-05 0.0000000000000000e+00  9.3456968552983348e-05 6.4087927193568950e-05 0.0000000000000000e+00  8.1230407007161257e-05 6.8698049101749710e-05 0.0000000000000000e+00  6.3350038129599137e-05 5.9418397238158098e-05 0.0000000000000000e+00  4.3970112164610994e-05 5.9493288625501369e-05 0.0000000000000000e+00  2.9918133101635671e-05 6.0736663197327841e-05 0.0000000000000000e+00  2.5479774439180791e-05 6.1634408852989916e-05 0.0000000000000000e+00  1.6223283911453999e-05 6.3367834432161637e-05 0.0000000000000000e+00  1.0028853963674037e-05 6.3845375491009985e-05 0.0000000000000000e+00  5.9165605689544777e-06 6.4789975257064077e-05 0.0000000000000000e+00  3.4198843358085083e-06 6.2719244282597616e-05 0.0000000000000000e+00  1.9018383367097606e-06 6.2199085580471507e-05 0.0000000000000000e+00  1.3958699358264246e-06 5.9915748104566161e-05 0.0000000000000000e+00  1.4322445685794657e-06 5.8587698720303174e-05 0.0000000000000000e+00  2.2810457205910478e-06 5.6444646669274109e-05 0.0000000000000000e+00  3.3518236416850217e-06 5.5077770444137505e-05 0.0000000000000000e+00  5.7486739095466825e-06 5.3290080856138475e-05 0.0000000000000000e+00  6.4348186982432667e-06 5.0467727022015923e-05 0.0000000000000000e+00  6.5555679697358325e-06 4.7329314651638770e-05 0.0000000000000000e+00  5.5787650480752937e-06 4.4041429958358251e-05 0.0000000000000000e+00  4.9718650558136977e-06 3.9905661554385381e-05 0.0000000000000000e+00  4.0905489996355098e-06 3.1726693949492990e-05 0.0000000000000000e+00  1.9032174368840354e-06 3.1348093473566248e-05 0.0000000000000000e+00  -8.9205035059914303e-07 2.9872753465400902e-05 0.0000000000000000e+00  6.3215608907321083e-06 5.5011465272522399e-05 0.0000000000000000e+00  9.7723431038640801e-05 2.4481249249634012e-05 0.0000000000000000e+00  9.7096874965945664e-05 2.7571445092450890e-05 0.0000000000000000e+00  8.8751441299560375e-05 5.3839730661641417e-05 0.0000000000000000e+00  8.1869092047542940e-05 7.0289740785136552e-05 0.0000000000000000e+00  7.6883273857377560e-05 7.7624993029100722e-05 0.0000000000000000e+00  6.7228103546725624e-05 7.8073038697759281e-05 0.0000000000000000e+00  4.7552021422051024e-05 7.4609538490073743e-05 0.0000000000000000e+00  3.6843487048470591e-05 7.3349690177680474e-05 0.0000000000000000e+00  2.3758090646691893e-05 7.1089677175996250e-05 0.0000000000000000e+00  1.7857447440478862e-05 7.0741395767906151e-05 0.0000000000000000e+00  1.2394669684713058e-05 7.2351143739934288e-05 0.0000000000000000e+00  8.0305029837198238e-06 7.1319309763403905e-05 0.0000000000000000e+00  4.7676917927268771e-06 6.9518311256432772e-05 0.0000000000000000e+00  4.5139818259419150e-06 6.7494925216057429e-05 0.0000000000000000e+00  3.3792248361526837e-06 6.5649928451378301e-05 0.0000000000000000e+00  3.3354210830752798e-06 6.3476172823462396e-05 0.0000000000000000e+00  3.7931182480168656e-06 6.1329377459778123e-05 0.0000000000000000e+00  4.9645861724332185e-06 5.9620681324907464e-05 0.0000000000000000e+00  6.4200503622828936e-06 5.7467133499215206e-05 0.0000000000000000e+00  8.1495930115369173e-06 5.4604428620038795e-05 0.0000000000000000e+00  9.5523735705169796e-06 5.2195834287238121e-05 0.0000000000000000e+00  1.0003594026020126e-05 4.8919905554692678e-05 0.0000000000000000e+00  1.0577916044951564e-05 4.3889415824549631e-05 0.0000000000000000e+00  6.8321668012330761e-06 3.8745056857275665e-05 0.0000000000000000e+00  -5.5812477708022926e-07 3.9142778991379688e-05 0.0000000000000000e+00  -7.1968059075087718e-06 4.0023727089069880e-05 0.0000000000000000e+00  -9.0173316823693330e-06 4.6028849810922214e-05 0.0000000000000000e+00  8.9508170726592705e-05 7.9816520954920200e-06 0.0000000000000000e+00  8.5623975621222255e-05 3.2990932444146358e-05 0.0000000000000000e+00  7.4207654958562675e-05 5.8597174465184244e-05 0.0000000000000000e+00  6.7646731762007755e-05 7.4233264062277706e-05 0.0000000000000000e+00  6.2730361000217936e-05 7.8538376091426379e-05 0.0000000000000000e+00  6.0871697699656377e-05 8.6789561292763176e-05 0.0000000000000000e+00  4.8000725896694155e-05 8.6610892794672839e-05 0.0000000000000000e+00  3.9164091398248588e-05 8.4238811746848317e-05 0.0000000000000000e+00  2.9376942745894227e-05 8.0041808860990449e-05 0.0000000000000000e+00  1.9926287218950089e-05 7.8780372817738420e-05 0.0000000000000000e+00  1.4066086945544626e-05 7.6940820608417649e-05 0.0000000000000000e+00  8.1507072090559499e-06 7.5359738407484918e-05 0.0000000000000000e+00  6.5652350652900434e-06 7.2822511849571423e-05 0.0000000000000000e+00  6.1366247199773390e-06 7.0585730001320571e-05 0.0000000000000000e+00  4.8802292549631890e-06 6.8660449522805952e-05 0.0000000000000000e+00  5.0152640000652240e-06 6.6323845940625256e-05 0.0000000000000000e+00  5.2473950802103834e-06 6.4141373179594290e-05 0.0000000000000000e+00  6.0849068866728598e-06 6.1799340164602590e-05 0.0000000000000000e+00  7.4872847253164115e-06 5.9144068494856137e-05 0.0000000000000000e+00  1.0236027840076036e-05 5.6158048828946894e-05 0.0000000000000000e+00  1.3237481664023400e-05 5.3039116908573193e-05 0.0000000000000000e+00  1.5592026252954928e-05 5.0000288296867745e-05 0.0000000000000000e+00  1.6168087015753898e-05 4.5155063795826617e-05 0.0000000000000000e+00  1.1466563943755084e-05 4.5380431812357493e-05 0.0000000000000000e+00  2.5553533913799406e-06 4.6886678558597086e-05 0.0000000000000000e+00  -4.8235959081827675e-06 4.5717560874321050e-05 0.0000000000000000e+00  -7.2259568921597113e-06 4.1847311805637768e-05 0.0000000000000000e+00  7.6860783233327485e-05 -6.2198104262474273e-06 0.0000000000000000e+00  6.6942986650536117e-05 3.7591370120809062e-05 0.0000000000000000e+00  5.6879969343140839e-05 6.2891591911504299e-05 0.0000000000000000e+00  5.4060842858765577e-05 7.4746603601734383e-05 0.0000000000000000e+00  5.1939191245738930e-05 8.0474505470835099e-05 0.0000000000000000e+00  5.0214620749678822e-05 8.7468757237532901e-05 0.0000000000000000e+00  4.6026892133458677e-05 9.6492867338001412e-05 0.0000000000000000e+00  3.9428429730212009e-05 8.9216695410126830e-05 0.0000000000000000e+00  3.0974522306539760e-05 8.9347333193540111e-05 0.0000000000000000e+00  2.2606045619371267e-05 8.4139429905891080e-05 0.0000000000000000e+00  1.5916527935024302e-05 8.0190254002999328e-05 0.0000000000000000e+00  1.0219220501726055e-05 7.6539197258192589e-05 0.0000000000000000e+00  7.4093748972068112e-06 7.4494860733015754e-05 0.0000000000000000e+00  6.9011225129717063e-06 7.2196943228890160e-05 0.0000000000000000e+00  5.8599980759333216e-06 6.9607572026651564e-05 0.0000000000000000e+00  6.2383127215207058e-06 6.7487599013475811e-05 0.0000000000000000e+00  6.5861040023012069e-06 6.4953721642124841e-05 0.0000000000000000e+00  7.7865505191795319e-06 6.2055420847580243e-05 0.0000000000000000e+00  9.5335536268534016e-06 5.8343469737181275e-05 0.0000000000000000e+00  1.1848799127396132e-05 5.5046212667739133e-05 0.0000000000000000e+00  1.4483044033094204e-05 5.1310720301950913e-05 0.0000000000000000e+00  1.6393452449797019e-05 4.7813923068384754e-05 0.0000000000000000e+00  1.6194664305199402e-05 4.6429145792099454e-05 0.0000000000000000e+00  1.2738934704060178e-05 5.0161005184940181e-05 0.0000000000000000e+00  7.5513773087960827e-06 5.1749766490336196e-05 0.0000000000000000e+00  3.9320596296624052e-06 4.8856223727799783e-05 0.0000000000000000e+00  1.6850839277510031e-06 4.1418791748604852e-05 0.0000000000000000e+00  -1.6275873088639510e-06 -6.6592479139189129e-05 0.0000000000000000e+00  3.0003012522397226e-05 3.9098616626059869e-05 0.0000000000000000e+00  4.1528286273453171e-05 6.4316102534027152e-05 0.0000000000000000e+00  4.4436004190607293e-05 7.4993375799957415e-05 0.0000000000000000e+00  4.5354808178696762e-05 8.1661473196444989e-05 0.0000000000000000e+00  4.1582805965620675e-05 8.8106691228686458e-05 0.0000000000000000e+00  4.2975476284009886e-05 1.0109065261019852e-04 0.0000000000000000e+00  3.6914389950428345e-05 9.3980393183358204e-05 0.0000000000000000e+00  3.3446591060812074e-05 9.4785153009098672e-05 0.0000000000000000e+00  2.6374627256566660e-05 8.8541586677064085e-05 0.0000000000000000e+00  1.9724748641756677e-05 8.4622388231296751e-05 0.0000000000000000e+00  1.3230524082142012e-05 8.0063977936671701e-05 0.0000000000000000e+00  9.4224923038675029e-06 7.6601872554202103e-05 0.0000000000000000e+00  8.7089600099343765e-06 7.3549346381366728e-05 0.0000000000000000e+00  7.4062932627834445e-06 7.0613511079834103e-05 0.0000000000000000e+00  7.9844284916439325e-06 6.7974712088131987e-05 0.0000000000000000e+00  8.6771674894848516e-06 6.5005793094850608e-05 0.0000000000000000e+00  9.9291237463736007e-06 6.1348108578183536e-05 0.0000000000000000e+00  1.2408623100910736e-05 5.8055275170521262e-05 0.0000000000000000e+00  1.4874506738586536e-05 5.4856327003710220e-05 0.0000000000000000e+00  1.6156576512227804e-05 5.0803865504307981e-05 0.0000000000000000e+00  1.7782707161613115e-05 4.7084860980158003e-05 0.0000000000000000e+00  1.3287867014453304e-05 4.7721722219554417e-05 0.0000000000000000e+00  1.0341730964048089e-05 5.2726238130528252e-05 0.0000000000000000e+00  9.7739060135892184e-06 5.3659649183093345e-05 0.0000000000000000e+00  9.2697867985548213e-06 4.9923435671846896e-05 0.0000000000000000e+00  9.6748865288886152e-06 4.2540219664086565e-05 0.0000000000000000e+00  </DataArray> 
</PointData> 
</Piece>
</UnstructuredGrid>
</VTKFile>