<?xml version="1.0"?>
<VTKFile type="UnstructuredGrid"  version="0.1"  >
<UnstructuredGrid>
<Piece  NumberOfPoints="135" NumberOfCells="208">
<Points>
<DataArray  type="Float64"  NumberOfComponents="3"  format="ascii">1 1 0  1.076923076923077 1 0  1.153846153846154 1 0  1.230769230769231 1 0  1.307692307692308 1 0  1.384615384615385 1 0  1.461538461538462 1 0  1.538461538461538 1 0  1.615384615384615 1 0  1.692307692307692 1 0  1.769230769230769 1 0  1.846153846153846 1 0  1.923076923076923 1 0  2 1 0  2.076923076923077 1 0  2.153846153846154 1 0  2.230769230769231 1 0  2.307692307692307 1 0  2.384615384615385 1 0  2.461538461538462 1 0  2.538461538461538 1 0  2.615384615384615 1 0  2.692307692307693 1 0  2.769230769230769 1 0  2.846153846153846 1 0  2.923076923076923 1 0  3 1 0  1 1.0625 0  1.076923076923077 1.0625 0  1.153846153846154 1.0625 0  1.230769230769231 1.0625 0  1.307692307692308 1.0625 0  1.384615384615385 1.0625 0  1.461538461538462 1.0625 0  1.538461538461538 1.0625 0  1.615384615384615 1.0625 0  1.692307692307692 1.0625 0  1.769230769230769 1.0625 0  1.846153846153846 1.0625 0  1.923076923076923 1.0625 0  2 1.0625 0  2.076923076923077 1.0625 0  2.153846153846154 1.0625 0  2.230769230769231 1.0625 0  2.307692307692307 1.0625 0  2.384615384615385 1.0625 0  2.461538461538462 1.0625 0  2.538461538461538 1.0625 0  2.615384615384615 1.0625 0  2.692307692307693 1.0625 0  2.769230769230769 1.0625 0  2.846153846153846 1.0625 0  2.923076923076923 1.0625 0  3 1.0625 0  1 1.125 0  1.076923076923077 1.125 0  1.153846153846154 1.125 0  1.230769230769231 1.125 0  1.307692307692308 1.125 0  1.384615384615385 1.125 0  1.461538461538462 1.125 0  1.538461538461538 1.125 0  1.615384615384615 1.125 0  1.692307692307692 1.125 0  1.769230769230769 1.125 0  1.846153846153846 1.125 0  1.923076923076923 1.125 0  2 1.125 0  2.076923076923077 1.125 0  2.153846153846154 1.125 0  2.230769230769231 1.125 0  2.307692307692307 1.125 0  2.384615384615385 1.125 0  2.461538461538462 1.125 0  2.538461538461538 1.125 0  2.615384615384615 1.125 0  2.692307692307693 1.125 0  2.769230769230769 1.125 0  2.846153846153846 1.125 0  2.923076923076923 1.125 0  3 1.125 0  1 1.1875 0  1.076923076923077 1.1875 0  1.153846153846154 1.1875 0  1.230769230769231 1.1875 0  1.307692307692308 1.1875 0  1.384615384615385 1.1875 0  1.461538461538462 1.1875 0  1.538461538461538 1.1875 0  1.615384615384615 1.1875 0  1.692307692307692 1.1875 0  1.769230769230769 1.1875 0  1.846153846153846 1.1875 0  1.923076923076923 1.1875 0  2 1.1875 0  2.076923076923077 1.1875 0  2.153846153846154 1.1875 0  2.230769230769231 1.1875 0  2.307692307692307 1.1875 0  2.384615384615385 1.1875 0  2.461538461538462 1.1875 0  2.538461538461538 1.1875 0  2.615384615384615 1.1875 0  2.692307692307693 1.1875 0  2.769230769230769 1.1875 0  2.846153846153846 1.1875 0  2.923076923076923 1.1875 0  3 1.1875 0  1 1.25 0  1.076923076923077 1.25 0  1.153846153846154 1.25 0  1.230769230769231 1.25 0  1.307692307692308 1.25 0  1.384615384615385 1.25 0  1.461538461538462 1.25 0  1.538461538461538 1.25 0  1.615384615384615 1.25 0  1.692307692307692 1.25 0  1.769230769230769 1.25 0  1.846153846153846 1.25 0  1.923076923076923 1.25 0  2 1.25 0  2.076923076923077 1.25 0  2.153846153846154 1.25 0  2.230769230769231 1.25 0  2.307692307692307 1.25 0  2.384615384615385 1.25 0  2.461538461538462 1.25 0  2.538461538461538 1.25 0  2.615384615384615 1.25 0  2.692307692307693 1.25 0  2.769230769230769 1.25 0  2.846153846153846 1.25 0  2.923076923076923 1.25 0  3 1.25 0  </DataArray>
</Points>
<Cells>
<DataArray  type="UInt32"  Name="connectivity"  format="ascii">0 1 28  0 27 28  1 2 29  1 28 29  2 3 30  2 29 30  3 4 31  3 30 31  4 5 32  4 31 32  5 6 33  5 32 33  6 7 34  6 33 34  7 8 35  7 34 35  8 9 36  8 35 36  9 10 37  9 36 37  10 11 38  10 37 38  11 12 39  11 38 39  12 13 40  12 39 40  13 14 41  13 40 41  14 15 42  14 41 42  15 16 43  15 42 43  16 17 44  16 43 44  17 18 45  17 44 45  18 19 46  18 45 46  19 20 47  19 46 47  20 21 48  20 47 48  21 22 49  21 48 49  22 23 50  22 49 50  23 24 51  23 50 51  24 25 52  24 51 52  25 26 53  25 52 53  27 28 55  27 54 55  28 29 56  28 55 56  29 30 57  29 56 57  30 31 58  30 57 58  31 32 59  31 58 59  32 33 60  32 59 60  33 34 61  33 60 61  34 35 62  34 61 62  35 36 63  35 62 63  36 37 64  36 63 64  37 38 65  37 64 65  38 39 66  38 65 66  39 40 67  39 66 67  40 41 68  40 67 68  41 42 69  41 68 69  42 43 70  42 69 70  43 44 71  43 70 71  44 45 72  44 71 72  45 46 73  45 72 73  46 47 74  46 73 74  47 48 75  47 74 75  48 49 76  48 75 76  49 50 77  49 76 77  50 51 78  50 77 78  51 52 79  51 78 79  52 53 80  52 79 80  54 55 82  54 81 82  55 56 83  55 82 83  56 57 84  56 83 84  57 58 85  57 84 85  58 59 86  58 85 86  59 60 87  59 86 87  60 61 88  60 87 88  61 62 89  61 88 89  62 63 90  62 89 90  63 64 91  63 90 91  64 65 92  64 91 92  65 66 93  65 92 93  66 67 94  66 93 94  67 68 95  67 94 95  68 69 96  68 95 96  69 70 97  69 96 97  70 71 98  70 97 98  71 72 99  71 98 99  72 73 100  72 99 100  73 74 101  73 100 101  74 75 102  74 101 102  75 76 103  75 102 103  76 77 104  76 103 104  77 78 105  77 104 105  78 79 106  78 105 106  79 80 107  79 106 107  81 82 109  81 108 109  82 83 110  82 109 110  83 84 111  83 110 111  84 85 112  84 111 112  85 86 113  85 112 113  86 87 114  86 113 114  87 88 115  87 114 115  88 89 116  88 115 116  89 90 117  89 116 117  90 91 118  90 117 118  91 92 119  91 118 119  92 93 120  92 119 120  93 94 121  93 120 121  94 95 122  94 121 122  95 96 123  95 122 123  96 97 124  96 123 124  97 98 125  97 124 125  98 99 126  98 125 126  99 100 127  99 126 127  100 101 128  100 127 128  101 102 129  101 128 129  102 103 130  102 129 130  103 104 131  103 130 131  104 105 132  104 131 132  105 106 133  105 132 133  106 107 134  106 133 134  </DataArray>
<DataArray  type="UInt32"  Name="offsets"  format="ascii">3 6 9 12 15 18 21 24 27 30 33 36 39 42 45 48 51 54 57 60 63 66 69 72 75 78 81 84 87 90 93 96 99 102 105 108 111 114 117 120 123 126 129 132 135 138 141 144 147 150 153 156 159 162 165 168 171 174 177 180 183 186 189 192 195 198 201 204 207 210 213 216 219 222 225 228 231 234 237 240 243 246 249 252 255 258 261 264 267 270 273 276 279 282 285 288 291 294 297 300 303 306 309 312 315 318 321 324 327 330 333 336 339 342 345 348 351 354 357 360 363 366 369 372 375 378 381 384 387 390 393 396 399 402 405 408 411 414 417 420 423 426 429 432 435 438 441 444 447 450 453 456 459 462 465 468 471 474 477 480 483 486 489 492 495 498 501 504 507 510 513 516 519 522 525 528 531 534 537 540 543 546 549 552 555 558 561 564 567 570 573 576 579 582 585 588 591 594 597 600 603 606 609 612 615 618 621 624 </DataArray>
<DataArray  type="UInt8"  Name="types"  format="ascii">5 5 5 5 5 5 5 5 5 5 5 5 5 5 5 5 5 5 5 5 5 5 5 5 5 5 5 5 5 5 5 5 5 5 5 5 5 5 5 5 5 5 5 5 5 5 5 5 5 5 5 5 5 5 5 5 5 5 5 5 5 5 5 5 5 5 5 5 5 5 5 5 5 5 5 5 5 5 5 5 5 5 5 5 5 5 5 5 5 5 5 5 5 5 5 5 5 5 5 5 5 5 5 5 5 5 5 5 5 5 5 5 5 5 5 5 5 5 5 5 5 5 5 5 5 5 5 5 5 5 5 5 5 5 5 5 5 5 5 5 5 5 5 5 5 5 5 5 5 5 5 5 5 5 5 5 5 5 5 5 5 5 5 5 5 5 5 5 5 5 5 5 5 5 5 5 5 5 5 5 5 5 5 5 5 5 5 5 5 5 5 5 5 5 5 5 5 5 5 5 5 5 5 5 5 5 5 5 </DataArray>
</Cells>
<PointData  Vectors="Displacement"> 
<DataArray  type="Float64"  Name="Displacement"  NumberOfComponents="3" format="ascii">5.8055068767423428e-04 1.6048260976110929e-04 0.0000000000000000e+00  6.2231046610477581e-04 6.4120217557744609e-05 0.0000000000000000e+00  6.3581339646637757e-04 1.1792046644104408e-04 0.0000000000000000e+00  6.2596911130813858e-04 1.5942397353054774e-04 0.0000000000000000e+00  6.1299975027505327e-04 1.9105819901412598e-04 0.0000000000000000e+00  5.9853414158349153e-04 2.1409442382854812e-04 0.0000000000000000e+00  5.8519265219702230e-04 2.3192877062474122e-04 0.0000000000000000e+00  5.7143704491197805e-04 2.4166741831062097e-04 0.0000000000000000e+00  5.5814440389450302e-04 2.4837709872756549e-04 0.0000000000000000e+00  5.4609929818527582e-04 2.4774635555528343e-04 0.0000000000000000e+00  5.3899070886826122e-04 2.4738072549058130e-04 0.0000000000000000e+00  5.3073746047799567e-04 2.4401699020710490e-04 0.0000000000000000e+00  5.2537297487519248e-04 2.3379777494782219e-04 0.0000000000000000e+00  5.1800096210984287e-04 2.2717452017697768e-04 0.0000000000000000e+00  5.0976263649806929e-04 2.1707909149959115e-04 0.0000000000000000e+00  5.0615613692165230e-04 2.0802597202213656e-04 0.0000000000000000e+00  5.0390777507204393e-04 1.9876550411512264e-04 0.0000000000000000e+00  5.0098989198921011e-04 1.9417462397620675e-04 0.0000000000000000e+00  4.9655621610619717e-04 1.9037673311046594e-04 0.0000000000000000e+00  4.9426667737418641e-04 1.8333283884625439e-04 0.0000000000000000e+00  4.9412074221715787e-04 1.7684373976995202e-04 0.0000000000000000e+00  4.9647415574672531e-04 1.7467349109813134e-04 0.0000000000000000e+00  4.9958918975064070e-04 1.7343863342907131e-04 0.0000000000000000e+00  5.0391056591818156e-04 1.7943961001630395e-04 0.0000000000000000e+00  5.0595787373734064e-04 1.8971006006067513e-04 0.0000000000000000e+00  5.1092047633515415e-04 1.9145937281740501e-04 0.0000000000000000e+00  5.3004612821290682e-04 2.5427459621778117e-04 0.0000000000000000e+00  6.1304949078754055e-04 6.2481454549342854e-05 0.0000000000000000e+00  6.1446930170836898e-04 6.9863663479925777e-05 0.0000000000000000e+00  6.0332186006291041e-04 1.1821165641626622e-04 0.0000000000000000e+00  5.9620649397895307e-04 1.6227107236354709e-04 0.0000000000000000e+00  5.8805605310824111e-04 1.9591077052170160e-04 0.0000000000000000e+00  5.7974673510869084e-04 2.1919158108107598e-04 0.0000000000000000e+00  5.7164091931761378e-04 2.3789239732649345e-04 0.0000000000000000e+00  5.6266812085799560e-04 2.4946111747031459e-04 0.0000000000000000e+00  5.5488427405866471e-04 2.5378319930592809e-04 0.0000000000000000e+00  5.4755798938242717e-04 2.5353630018183968e-04 0.0000000000000000e+00  5.3969496671117255e-04 2.5156984630011667e-04 0.0000000000000000e+00  5.3578587965034399e-04 2.4689103503381190e-04 0.0000000000000000e+00  5.2997278524648879e-04 2.3761981743914009e-04 0.0000000000000000e+00  5.2350811801669917e-04 2.3182818374103026e-04 0.0000000000000000e+00  5.1817785182906809e-04 2.2017737865674935e-04 0.0000000000000000e+00  5.1343905036197509e-04 2.0964590439363279e-04 0.0000000000000000e+00  5.1002014892812724e-04 2.0142854901007880e-04 0.0000000000000000e+00  5.0476149543515097e-04 1.9703295828183985e-04 0.0000000000000000e+00  5.0246208547886592e-04 1.9147588528016708e-04 0.0000000000000000e+00  5.0105559270721006e-04 1.8457742635322305e-04 0.0000000000000000e+00  4.9954752778007131e-04 1.7720781961868309e-04 0.0000000000000000e+00  5.0022436605058358e-04 1.7421479052509469e-04 0.0000000000000000e+00  4.9991546917167143e-04 1.7339430887432938e-04 0.0000000000000000e+00  4.9950326543981205e-04 1.8005867913492861e-04 0.0000000000000000e+00  4.9995899158624833e-04 1.8947490457006452e-04 0.0000000000000000e+00  4.9765215780102183e-04 2.0003912589674726e-04 0.0000000000000000e+00  4.9769267464607630e-04 2.2666466286741705e-04 0.0000000000000000e+00  5.7783463509705833e-04 2.0262246016598695e-05 0.0000000000000000e+00  5.8480804821788447e-04 7.3777819938002946e-05 0.0000000000000000e+00  5.7661316834675962e-04 1.2281253470224838e-04 0.0000000000000000e+00  5.6858490955834207e-04 1.6603054642878222e-04 0.0000000000000000e+00  5.6388519361807998e-04 1.9907305704332839e-04 0.0000000000000000e+00  5.6005773360431475e-04 2.2264051226924015e-04 0.0000000000000000e+00  5.5717405126401171e-04 2.4085969593772439e-04 0.0000000000000000e+00  5.5313171922311303e-04 2.5231325981555150e-04 0.0000000000000000e+00  5.5080029468597338e-04 2.5535000262065711e-04 0.0000000000000000e+00  5.4754863732642798e-04 2.5714239035799346e-04 0.0000000000000000e+00  5.4191967776176986e-04 2.5456761404801001e-04 0.0000000000000000e+00  5.3793214452479868e-04 2.4823564200807688e-04 0.0000000000000000e+00  5.3398239419808326e-04 2.4091617949434992e-04 0.0000000000000000e+00  5.2805131254241803e-04 2.3494142554812903e-04 0.0000000000000000e+00  5.2452326487044453e-04 2.2256245017396409e-04 0.0000000000000000e+00  5.1894416366675975e-04 2.1205057531144947e-04 0.0000000000000000e+00  5.1473699306483361e-04 2.0421953860024782e-04 0.0000000000000000e+00  5.1027876349233822e-04 1.9988170744325809e-04 0.0000000000000000e+00  5.0787665808031549e-04 1.9126242596286897e-04 0.0000000000000000e+00  5.0532620398849413e-04 1.8548740420519440e-04 0.0000000000000000e+00  5.0288339614671794e-04 1.7756792685892712e-04 0.0000000000000000e+00  5.0108263579379947e-04 1.7427137012557663e-04 0.0000000000000000e+00  4.9833706639184770e-04 1.7543774225217313e-04 0.0000000000000000e+00  4.9543645577463215e-04 1.8075793401213047e-04 0.0000000000000000e+00  4.9302101961599303e-04 1.8963369210462958e-04 0.0000000000000000e+00  4.9095395838389462e-04 2.0279388058252576e-04 0.0000000000000000e+00  4.9255132338419110e-04 2.1664510866667235e-04 0.0000000000000000e+00  5.3055306927475923e-04 -1.8651004106527996e-05 0.0000000000000000e+00  5.4027100932820622e-04 7.0817389248162819e-05 0.0000000000000000e+00  5.3707796206685799e-04 1.2704051313884481e-04 0.0000000000000000e+00  5.3771120359105684e-04 1.6796488255020535e-04 0.0000000000000000e+00  5.3946521660742084e-04 1.9987238309224434e-04 0.0000000000000000e+00  5.4039139372110800e-04 2.2280661032587118e-04 0.0000000000000000e+00  5.4333480251886205e-04 2.4043794719273324e-04 0.0000000000000000e+00  5.4533686254993718e-04 2.5347348147532103e-04 0.0000000000000000e+00  5.4485723490196316e-04 2.5575223359975200e-04 0.0000000000000000e+00  5.4451953856070399e-04 2.5774017445066378e-04 0.0000000000000000e+00  5.4363891546633819e-04 2.5634054067751581e-04 0.0000000000000000e+00  5.4165503177329303e-04 2.5021381462803018e-04 0.0000000000000000e+00  5.3863822149652731e-04 2.4313621044739491e-04 0.0000000000000000e+00  5.3470039424492462e-04 2.3719953404343911e-04 0.0000000000000000e+00  5.2990039991127167e-04 2.2535054156705713e-04 0.0000000000000000e+00  5.2365219546279059e-04 2.1531044144819619e-04 0.0000000000000000e+00  5.1851419658974999e-04 2.0641234736104526e-04 0.0000000000000000e+00  5.1510574696700124e-04 2.0069345846393825e-04 0.0000000000000000e+00  5.1287791074991962e-04 1.9167168973622641e-04 0.0000000000000000e+00  5.0920721205278377e-04 1.8639803604180292e-04 0.0000000000000000e+00  5.0634428626470122e-04 1.7946606747128369e-04 0.0000000000000000e+00  5.0175358695514981e-04 1.7595747431488210e-04 0.0000000000000000e+00  4.9634102940051064e-04 1.7697760438909526e-04 0.0000000000000000e+00  4.9288045837821615e-04 1.8392352407686619e-04 0.0000000000000000e+00  4.8892457676282181e-04 1.9047573341924296e-04 0.0000000000000000e+00  4.8709160562615317e-04 2.0335406967815931e-04 0.0000000000000000e+00  4.8723600689159016e-04 2.1330893742513602e-04 0.0000000000000000e+00  4.1024881499397947e-04 -1.1424910854516837e-04 0.0000000000000000e+00  4.7142193317069742e-04 6.8085354784834523e-05 0.0000000000000000e+00  4.9402198247890030e-04 1.2495948082726419e-04 0.0000000000000000e+00  5.0608156189097290e-04 1.6424176936789898e-04 0.0000000000000000e+00  5.1615308053373440e-04 1.9716014100208847e-04 0.0000000000000000e+00  5.2441740728083254e-04 2.2136634502130514e-04 0.0000000000000000e+00  5.3005185351060922e-04 2.3744166746505392e-04 0.0000000000000000e+00  5.3750285800226898e-04 2.5156653242470670e-04 0.0000000000000000e+00  5.4180656706213838e-04 2.5567783319609165e-04 0.0000000000000000e+00  5.4237921311026983e-04 2.5679777417981716e-04 0.0000000000000000e+00  5.4525979566093436e-04 2.5642503991982375e-04 0.0000000000000000e+00  5.4499392736520309e-04 2.5068008424717470e-04 0.0000000000000000e+00  5.4294797169815836e-04 2.4435601716376720e-04 0.0000000000000000e+00  5.4144346659764308e-04 2.3971067327505126e-04 0.0000000000000000e+00  5.3685780323176437e-04 2.2949037548140717e-04 0.0000000000000000e+00  5.3032674428632736e-04 2.1920599061830308e-04 0.0000000000000000e+00  5.2376424360491653e-04 2.0940402839773542e-04 0.0000000000000000e+00  5.2070794774512080e-04 2.0147535969865943e-04 0.0000000000000000e+00  5.1758332913591975e-04 1.9380779315555398e-04 0.0000000000000000e+00  5.1403536494869261e-04 1.8775781415673100e-04 0.0000000000000000e+00  5.0925533088238357e-04 1.8136281666385261e-04 0.0000000000000000e+00  5.0238786344837993e-04 1.7936388483173608e-04 0.0000000000000000e+00  4.9485859205177115e-04 1.8020701187986920e-04 0.0000000000000000e+00  4.8752188000970978e-04 1.8633744382271254e-04 0.0000000000000000e+00  4.8285686947854709e-04 1.9219854133924942e-04 0.0000000000000000e+00  4.8064738252358400e-04 2.0373840333229187e-04 0.0000000000000000e+00  4.8351346653016067e-04 2.1142928987353938e-04 0.0000000000000000e+00  </DataArray> 
</PointData> 
</Piece>
</UnstructuredGrid>
</VTKFile>