<?xml version="1.0"?>
<VTKFile type="UnstructuredGrid"  version="0.1"  >
<UnstructuredGrid>
<Piece  NumberOfPoints="135" NumberOfCells="208">
<Points>
<DataArray  type="Float64"  NumberOfComponents="3"  format="ascii">1 1 0  1.076923076923077 1 0  1.153846153846154 1 0  1.230769230769231 1 0  1.307692307692308 1 0  1.384615384615385 1 0  1.461538461538462 1 0  1.538461538461538 1 0  1.615384615384615 1 0  1.692307692307692 1 0  1.769230769230769 1 0  1.846153846153846 1 0  1.923076923076923 1 0  2 1 0  2.076923076923077 1 0  2.153846153846154 1 0  2.230769230769231 1 0  2.307692307692307 1 0  2.384615384615385 1 0  2.461538461538462 1 0  2.538461538461538 1 0  2.615384615384615 1 0  2.692307692307693 1 0  2.769230769230769 1 0  2.846153846153846 1 0  2.923076923076923 1 0  3 1 0  1 1.0625 0  1.076923076923077 1.0625 0  1.153846153846154 1.0625 0  1.230769230769231 1.0625 0  1.307692307692308 1.0625 0  1.384615384615385 1.0625 0  1.461538461538462 1.0625 0  1.538461538461538 1.0625 0  1.615384615384615 1.0625 0  1.692307692307692 1.0625 0  1.769230769230769 1.0625 0  1.846153846153846 1.0625 0  1.923076923076923 1.0625 0  2 1.0625 0  2.076923076923077 1.0625 0  2.153846153846154 1.0625 0  2.230769230769231 1.0625 0  2.307692307692307 1.0625 0  2.384615384615385 1.0625 0  2.461538461538462 1.0625 0  2.538461538461538 1.0625 0  2.615384615384615 1.0625 0  2.692307692307693 1.0625 0  2.769230769230769 1.0625 0  2.846153846153846 1.0625 0  2.923076923076923 1.0625 0  3 1.0625 0  1 1.125 0  1.076923076923077 1.125 0  1.153846153846154 1.125 0  1.230769230769231 1.125 0  1.307692307692308 1.125 0  1.384615384615385 1.125 0  1.461538461538462 1.125 0  1.538461538461538 1.125 0  1.615384615384615 1.125 0  1.692307692307692 1.125 0  1.769230769230769 1.125 0  1.846153846153846 1.125 0  1.923076923076923 1.125 0  2 1.125 0  2.076923076923077 1.125 0  2.153846153846154 1.125 0  2.230769230769231 1.125 0  2.307692307692307 1.125 0  2.384615384615385 1.125 0  2.461538461538462 1.125 0  2.538461538461538 1.125 0  2.615384615384615 1.125 0  2.692307692307693 1.125 0  2.769230769230769 1.125 0  2.846153846153846 1.125 0  2.923076923076923 1.125 0  3 1.125 0  1 1.1875 0  1.076923076923077 1.1875 0  1.153846153846154 1.1875 0  1.230769230769231 1.1875 0  1.307692307692308 1.1875 0  1.384615384615385 1.1875 0  1.461538461538462 1.1875 0  1.538461538461538 1.1875 0  1.615384615384615 1.1875 0  1.692307692307692 1.1875 0  1.769230769230769 1.1875 0  1.846153846153846 1.1875 0  1.923076923076923 1.1875 0  2 1.1875 0  2.076923076923077 1.1875 0  2.153846153846154 1.1875 0  2.230769230769231 1.1875 0  2.307692307692307 1.1875 0  2.384615384615385 1.1875 0  2.461538461538462 1.1875 0  2.538461538461538 1.1875 0  2.615384615384615 1.1875 0  2.692307692307693 1.1875 0  2.769230769230769 1.1875 0  2.846153846153846 1.1875 0  2.923076923076923 1.1875 0  3 1.1875 0  1 1.25 0  1.076923076923077 1.25 0  1.153846153846154 1.25 0  1.230769230769231 1.25 0  1.307692307692308 1.25 0  1.384615384615385 1.25 0  1.461538461538462 1.25 0  1.538461538461538 1.25 0  1.615384615384615 1.25 0  1.692307692307692 1.25 0  1.769230769230769 1.25 0  1.846153846153846 1.25 0  1.923076923076923 1.25 0  2 1.25 0  2.076923076923077 1.25 0  2.153846153846154 1.25 0  2.230769230769231 1.25 0  2.307692307692307 1.25 0  2.384615384615385 1.25 0  2.461538461538462 1.25 0  2.538461538461538 1.25 0  2.615384615384615 1.25 0  2.692307692307693 1.25 0  2.769230769230769 1.25 0  2.846153846153846 1.25 0  2.923076923076923 1.25 0  3 1.25 0  </DataArray>
</Points>
<Cells>
<DataArray  type="UInt32"  Name="connectivity"  format="ascii">0 1 28  0 27 28  1 2 29  1 28 29  2 3 30  2 29 30  3 4 31  3 30 31  4 5 32  4 31 32  5 6 33  5 32 33  6 7 34  6 33 34  7 8 35  7 34 35  8 9 36  8 35 36  9 10 37  9 36 37  10 11 38  10 37 38  11 12 39  11 38 39  12 13 40  12 39 40  13 14 41  13 40 41  14 15 42  14 41 42  15 16 43  15 42 43  16 17 44  16 43 44  17 18 45  17 44 45  18 19 46  18 45 46  19 20 47  19 46 47  20 21 48  20 47 48  21 22 49  21 48 49  22 23 50  22 49 50  23 24 51  23 50 51  24 25 52  24 51 52  25 26 53  25 52 53  27 28 55  27 54 55  28 29 56  28 55 56  29 30 57  29 56 57  30 31 58  30 57 58  31 32 59  31 58 59  32 33 60  32 59 60  33 34 61  33 60 61  34 35 62  34 61 62  35 36 63  35 62 63  36 37 64  36 63 64  37 38 65  37 64 65  38 39 66  38 65 66  39 40 67  39 66 67  40 41 68  40 67 68  41 42 69  41 68 69  42 43 70  42 69 70  43 44 71  43 70 71  44 45 72  44 71 72  45 46 73  45 72 73  46 47 74  46 73 74  47 48 75  47 74 75  48 49 76  48 75 76  49 50 77  49 76 77  50 51 78  50 77 78  51 52 79  51 78 79  52 53 80  52 79 80  54 55 82  54 81 82  55 56 83  55 82 83  56 57 84  56 83 84  57 58 85  57 84 85  58 59 86  58 85 86  59 60 87  59 86 87  60 61 88  60 87 88  61 62 89  61 88 89  62 63 90  62 89 90  63 64 91  63 90 91  64 65 92  64 91 92  65 66 93  65 92 93  66 67 94  66 93 94  67 68 95  67 94 95  68 69 96  68 95 96  69 70 97  69 96 97  70 71 98  70 97 98  71 72 99  71 98 99  72 73 100  72 99 100  73 74 101  73 100 101  74 75 102  74 101 102  75 76 103  75 102 103  76 77 104  76 103 104  77 78 105  77 104 105  78 79 106  78 105 106  79 80 107  79 106 107  81 82 109  81 108 109  82 83 110  82 109 110  83 84 111  83 110 111  84 85 112  84 111 112  85 86 113  85 112 113  86 87 114  86 113 114  87 88 115  87 114 115  88 89 116  88 115 116  89 90 117  89 116 117  90 91 118  90 117 118  91 92 119  91 118 119  92 93 120  92 119 120  93 94 121  93 120 121  94 95 122  94 121 122  95 96 123  95 122 123  96 97 124  96 123 124  97 98 125  97 124 125  98 99 126  98 125 126  99 100 127  99 126 127  100 101 128  100 127 128  101 102 129  101 128 129  102 103 130  102 129 130  103 104 131  103 130 131  104 105 132  104 131 132  105 106 133  105 132 133  106 107 134  106 133 134  </DataArray>
<DataArray  type="UInt32"  Name="offsets"  format="ascii">3 6 9 12 15 18 21 24 27 30 33 36 39 42 45 48 51 54 57 60 63 66 69 72 75 78 81 84 87 90 93 96 99 102 105 108 111 114 117 120 123 126 129 132 135 138 141 144 147 150 153 156 159 162 165 168 171 174 177 180 183 186 189 192 195 198 201 204 207 210 213 216 219 222 225 228 231 234 237 240 243 246 249 252 255 258 261 264 267 270 273 276 279 282 285 288 291 294 297 300 303 306 309 312 315 318 321 324 327 330 333 336 339 342 345 348 351 354 357 360 363 366 369 372 375 378 381 384 387 390 393 396 399 402 405 408 411 414 417 420 423 426 429 432 435 438 441 444 447 450 453 456 459 462 465 468 471 474 477 480 483 486 489 492 495 498 501 504 507 510 513 516 519 522 525 528 531 534 537 540 543 546 549 552 555 558 561 564 567 570 573 576 579 582 585 588 591 594 597 600 603 606 609 612 615 618 621 624 </DataArray>
<DataArray  type="UInt8"  Name="types"  format="ascii">5 5 5 5 5 5 5 5 5 5 5 5 5 5 5 5 5 5 5 5 5 5 5 5 5 5 5 5 5 5 5 5 5 5 5 5 5 5 5 5 5 5 5 5 5 5 5 5 5 5 5 5 5 5 5 5 5 5 5 5 5 5 5 5 5 5 5 5 5 5 5 5 5 5 5 5 5 5 5 5 5 5 5 5 5 5 5 5 5 5 5 5 5 5 5 5 5 5 5 5 5 5 5 5 5 5 5 5 5 5 5 5 5 5 5 5 5 5 5 5 5 5 5 5 5 5 5 5 5 5 5 5 5 5 5 5 5 5 5 5 5 5 5 5 5 5 5 5 5 5 5 5 5 5 5 5 5 5 5 5 5 5 5 5 5 5 5 5 5 5 5 5 5 5 5 5 5 5 5 5 5 5 5 5 5 5 5 5 5 5 5 5 5 5 5 5 5 5 5 5 5 5 5 5 5 5 5 5 </DataArray>
</Cells>
<PointData  Vectors="Displacement"> 
<DataArray  type="Float64"  Name="Displacement"  NumberOfComponents="3" format="ascii">4.7443802313448260e-04 1.7230120809100651e-04 0.0000000000000000e+00  5.1892788016719344e-04 7.1990473158818597e-05 0.0000000000000000e+00  5.3046227412432436e-04 1.1763321690235425e-04 0.0000000000000000e+00  5.1981368985118707e-04 1.5010156562654496e-04 0.0000000000000000e+00  5.0649739746415172e-04 1.7708934189102868e-04 0.0000000000000000e+00  4.9203578780558351e-04 1.9717339384903089e-04 0.0000000000000000e+00  4.7811859815438294e-04 2.1061406089810158e-04 0.0000000000000000e+00  4.6402731938616275e-04 2.2285560943042672e-04 0.0000000000000000e+00  4.5357710224462958e-04 2.2781199838706043e-04 0.0000000000000000e+00  4.4491070378524457e-04 2.2649851787705561e-04 0.0000000000000000e+00  4.3675153015914172e-04 2.2364311406184069e-04 0.0000000000000000e+00  4.3159884914193846e-04 2.2115928620348616e-04 0.0000000000000000e+00  4.2591214761479362e-04 2.1387025626120435e-04 0.0000000000000000e+00  4.2122421758237886e-04 2.0665728365771143e-04 0.0000000000000000e+00  4.1481401329206309e-04 1.9904594672494038e-04 0.0000000000000000e+00  4.1201380167059306e-04 1.8893302917716742e-04 0.0000000000000000e+00  4.0979173407749162e-04 1.7626897131731506e-04 0.0000000000000000e+00  4.1013415960097283e-04 1.7070007832712024e-04 0.0000000000000000e+00  4.0823988096502296e-04 1.6686861564787415e-04 0.0000000000000000e+00  4.0703819983283824e-04 1.5946386708006916e-04 0.0000000000000000e+00  4.0744769383594775e-04 1.5335228218358687e-04 0.0000000000000000e+00  4.0927161060878197e-04 1.5187930656622228e-04 0.0000000000000000e+00  4.1168160439432843e-04 1.5451396911950982e-04 0.0000000000000000e+00  4.1521595574182664e-04 1.5804259251483426e-04 0.0000000000000000e+00  4.1816820613733394e-04 1.6299400056599326e-04 0.0000000000000000e+00  4.2415714907967410e-04 1.6166326216158559e-04 0.0000000000000000e+00  4.4179906718799534e-04 2.1993786547570599e-04 0.0000000000000000e+00  5.1369052056182099e-04 7.4807638925266146e-05 0.0000000000000000e+00  5.1399254576017957e-04 7.7397422889703877e-05 0.0000000000000000e+00  5.0264780933857701e-04 1.1835951287577438e-04 0.0000000000000000e+00  4.9318429104230855e-04 1.5401086575331796e-04 0.0000000000000000e+00  4.8472643122718335e-04 1.8256473792974313e-04 0.0000000000000000e+00  4.7547913184768685e-04 2.0311281668590247e-04 0.0000000000000000e+00  4.6516835116034837e-04 2.1778056429749823e-04 0.0000000000000000e+00  4.5653296842400418e-04 2.2789135472480297e-04 0.0000000000000000e+00  4.5130783547696378e-04 2.3179481897997426e-04 0.0000000000000000e+00  4.4429514980309797e-04 2.3100414966412250e-04 0.0000000000000000e+00  4.3845050031308453e-04 2.2755644480678802e-04 0.0000000000000000e+00  4.3496530890205741e-04 2.2351235555427806e-04 0.0000000000000000e+00  4.3152766242314158e-04 2.1689213447757816e-04 0.0000000000000000e+00  4.2618331212593410e-04 2.0954233611052503e-04 0.0000000000000000e+00  4.2367396568862380e-04 2.0138068256252104e-04 0.0000000000000000e+00  4.2073971604835928e-04 1.9081448909367469e-04 0.0000000000000000e+00  4.1722982777472672e-04 1.7892176883634666e-04 0.0000000000000000e+00  4.1539489591253809e-04 1.7258142982566496e-04 0.0000000000000000e+00  4.1407886868366527e-04 1.6828193981623560e-04 0.0000000000000000e+00  4.1432791330869352e-04 1.6021513649031529e-04 0.0000000000000000e+00  4.1385104628546338e-04 1.5479519692691797e-04 0.0000000000000000e+00  4.1219909840981478e-04 1.5253102363507658e-04 0.0000000000000000e+00  4.1343864760551725e-04 1.5394983296550385e-04 0.0000000000000000e+00  4.1623951827789157e-04 1.5784787063194414e-04 0.0000000000000000e+00  4.1854962377932690e-04 1.6274050487095906e-04 0.0000000000000000e+00  4.1676879144335050e-04 1.7031613002176069e-04 0.0000000000000000e+00  4.1616728530598538e-04 1.9556551362337468e-04 0.0000000000000000e+00  4.7980196858582561e-04 3.1654193129791299e-05 0.0000000000000000e+00  4.8721354810702441e-04 8.0623610939581277e-05 0.0000000000000000e+00  4.7851303391030861e-04 1.2408424113449087e-04 0.0000000000000000e+00  4.6943351545098311e-04 1.5895097622602541e-04 0.0000000000000000e+00  4.6391997437055638e-04 1.8675647385474724e-04 0.0000000000000000e+00  4.5763417586389154e-04 2.0675214647786891e-04 0.0000000000000000e+00  4.5388943613395986e-04 2.2156949796767810e-04 0.0000000000000000e+00  4.4984140307948535e-04 2.2980398583306071e-04 0.0000000000000000e+00  4.4691779940275088e-04 2.3394719558716040e-04 0.0000000000000000e+00  4.4283553090951881e-04 2.3324765916636305e-04 0.0000000000000000e+00  4.4030090891009646e-04 2.2871798008151296e-04 0.0000000000000000e+00  4.3764526137197990e-04 2.2485416965689839e-04 0.0000000000000000e+00  4.3560620773064779e-04 2.1855518729383913e-04 0.0000000000000000e+00  4.3228774984823895e-04 2.1018771736942195e-04 0.0000000000000000e+00  4.3054878477489768e-04 2.0361991795202111e-04 0.0000000000000000e+00  4.2620447992682470e-04 1.9414692520516633e-04 0.0000000000000000e+00  4.2344364430167919e-04 1.8151773164797042e-04 0.0000000000000000e+00  4.2196524573452990e-04 1.7317344085358299e-04 0.0000000000000000e+00  4.2016396288292247e-04 1.6749497906526988e-04 0.0000000000000000e+00  4.1992746720802905e-04 1.5921633366280396e-04 0.0000000000000000e+00  4.1861798009651635e-04 1.5534210535072415e-04 0.0000000000000000e+00  4.1473307169300416e-04 1.5395851716064752e-04 0.0000000000000000e+00  4.1244648685242400e-04 1.5245328827615624e-04 0.0000000000000000e+00  4.1315796940195025e-04 1.5559095518939694e-04 0.0000000000000000e+00  4.1374255907440454e-04 1.6338427741199448e-04 0.0000000000000000e+00  4.1057727434215871e-04 1.7393384884493849e-04 0.0000000000000000e+00  4.0984651724221689e-04 1.8783506004167613e-04 0.0000000000000000e+00  4.3388796396979162e-04 -9.7412447200492385e-06 0.0000000000000000e+00  4.4555121470031848e-04 7.7677939644153456e-05 0.0000000000000000e+00  4.4392679903888224e-04 1.2794301071146293e-04 0.0000000000000000e+00  4.4273388622581729e-04 1.6124610166180412e-04 0.0000000000000000e+00  4.4327670692374230e-04 1.8954403736229619e-04 0.0000000000000000e+00  4.4149985254275334e-04 2.0868146619927236e-04 0.0000000000000000e+00  4.4221271378184633e-04 2.2189700067903951e-04 0.0000000000000000e+00  4.4248835605101619e-04 2.3078220613215717e-04 0.0000000000000000e+00  4.4238386847697276e-04 2.3525081348120620e-04 0.0000000000000000e+00  4.4332178288239963e-04 2.3447019776263767e-04 0.0000000000000000e+00  4.4251183982768611e-04 2.2997062100110595e-04 0.0000000000000000e+00  4.4178903797054581e-04 2.2581613918788967e-04 0.0000000000000000e+00  4.3992547489412888e-04 2.1944748241462089e-04 0.0000000000000000e+00  4.3742672351542963e-04 2.1077186342574128e-04 0.0000000000000000e+00  4.3517028000340514e-04 2.0647384043016176e-04 0.0000000000000000e+00  4.3259618924258194e-04 1.9650904585146662e-04 0.0000000000000000e+00  4.3052574491413625e-04 1.8207448988199102e-04 0.0000000000000000e+00  4.2938720198665851e-04 1.7523721114572245e-04 0.0000000000000000e+00  4.2609854634970379e-04 1.6790317730408164e-04 0.0000000000000000e+00  4.2405424040121330e-04 1.5916936211331036e-04 0.0000000000000000e+00  4.2132136057347044e-04 1.5785518374245372e-04 0.0000000000000000e+00  4.1843211171299079e-04 1.5592906912004234e-04 0.0000000000000000e+00  4.1435934134702117e-04 1.5471866385585411e-04 0.0000000000000000e+00  4.1037421842414273e-04 1.5485870103439136e-04 0.0000000000000000e+00  4.0865640405396116e-04 1.6511118102404882e-04 0.0000000000000000e+00  4.0477457875475218e-04 1.7569856365979718e-04 0.0000000000000000e+00  4.0607103470247465e-04 1.8538847463255711e-04 0.0000000000000000e+00  3.1607580101137292e-04 -1.0617904377043280e-04 0.0000000000000000e+00  3.8004357194235328e-04 7.3920153943234784e-05 0.0000000000000000e+00  4.0502982438670495e-04 1.2513097988924975e-04 0.0000000000000000e+00  4.1649531297157147e-04 1.5996174049521237e-04 0.0000000000000000e+00  4.2205273801789470e-04 1.8871389450140019e-04 0.0000000000000000e+00  4.2835632600652805e-04 2.0898465702770606e-04 0.0000000000000000e+00  4.3196290796784228e-04 2.2050237140085337e-04 0.0000000000000000e+00  4.3613190651044568e-04 2.3143580170703577e-04 0.0000000000000000e+00  4.3976306372916330e-04 2.3453032439179765e-04 0.0000000000000000e+00  4.4431879960237647e-04 2.3390332871376510e-04 0.0000000000000000e+00  4.4564699502037356e-04 2.3028889132983190e-04 0.0000000000000000e+00  4.4601565964795124e-04 2.2656326065773242e-04 0.0000000000000000e+00  4.4455036358615548e-04 2.2064301450082577e-04 0.0000000000000000e+00  4.4335556314476372e-04 2.1333542418316257e-04 0.0000000000000000e+00  4.4036520965830115e-04 2.0838612029738880e-04 0.0000000000000000e+00  4.4102992565265068e-04 1.9752125800819880e-04 0.0000000000000000e+00  4.3998253110355979e-04 1.8484661575025348e-04 0.0000000000000000e+00  4.3518340744836645e-04 1.7840969556933887e-04 0.0000000000000000e+00  4.3307946636870879e-04 1.7012189327157546e-04 0.0000000000000000e+00  4.2770148681344096e-04 1.6259737513547675e-04 0.0000000000000000e+00  4.2295104564029815e-04 1.5985725044579709e-04 0.0000000000000000e+00  4.1914593403973184e-04 1.5771011803963883e-04 0.0000000000000000e+00  4.1605429893913984e-04 1.5779328612584276e-04 0.0000000000000000e+00  4.0784416502638040e-04 1.5730879850711630e-04 0.0000000000000000e+00  4.0215028377397550e-04 1.6703691140575037e-04 0.0000000000000000e+00  4.0028644709830870e-04 1.7708339811760279e-04 0.0000000000000000e+00  4.0106946511320218e-04 1.8264538866025117e-04 0.0000000000000000e+00  </DataArray> 
</PointData> 
</Piece>
</UnstructuredGrid>
</VTKFile>