<?xml version="1.0"?>
<VTKFile type="UnstructuredGrid"  version="0.1"  >
<UnstructuredGrid>
<Piece  NumberOfPoints="135" NumberOfCells="208">
<Points>
<DataArray  type="Float64"  NumberOfComponents="3"  format="ascii">1 1 0  1.076923076923077 1 0  1.153846153846154 1 0  1.230769230769231 1 0  1.307692307692308 1 0  1.384615384615385 1 0  1.461538461538462 1 0  1.538461538461538 1 0  1.615384615384615 1 0  1.692307692307692 1 0  1.769230769230769 1 0  1.846153846153846 1 0  1.923076923076923 1 0  2 1 0  2.076923076923077 1 0  2.153846153846154 1 0  2.230769230769231 1 0  2.307692307692307 1 0  2.384615384615385 1 0  2.461538461538462 1 0  2.538461538461538 1 0  2.615384615384615 1 0  2.692307692307693 1 0  2.769230769230769 1 0  2.846153846153846 1 0  2.923076923076923 1 0  3 1 0  1 1.0625 0  1.076923076923077 1.0625 0  1.153846153846154 1.0625 0  1.230769230769231 1.0625 0  1.307692307692308 1.0625 0  1.384615384615385 1.0625 0  1.461538461538462 1.0625 0  1.538461538461538 1.0625 0  1.615384615384615 1.0625 0  1.692307692307692 1.0625 0  1.769230769230769 1.0625 0  1.846153846153846 1.0625 0  1.923076923076923 1.0625 0  2 1.0625 0  2.076923076923077 1.0625 0  2.153846153846154 1.0625 0  2.230769230769231 1.0625 0  2.307692307692307 1.0625 0  2.384615384615385 1.0625 0  2.461538461538462 1.0625 0  2.538461538461538 1.0625 0  2.615384615384615 1.0625 0  2.692307692307693 1.0625 0  2.769230769230769 1.0625 0  2.846153846153846 1.0625 0  2.923076923076923 1.0625 0  3 1.0625 0  1 1.125 0  1.076923076923077 1.125 0  1.153846153846154 1.125 0  1.230769230769231 1.125 0  1.307692307692308 1.125 0  1.384615384615385 1.125 0  1.461538461538462 1.125 0  1.538461538461538 1.125 0  1.615384615384615 1.125 0  1.692307692307692 1.125 0  1.769230769230769 1.125 0  1.846153846153846 1.125 0  1.923076923076923 1.125 0  2 1.125 0  2.076923076923077 1.125 0  2.153846153846154 1.125 0  2.230769230769231 1.125 0  2.307692307692307 1.125 0  2.384615384615385 1.125 0  2.461538461538462 1.125 0  2.538461538461538 1.125 0  2.615384615384615 1.125 0  2.692307692307693 1.125 0  2.769230769230769 1.125 0  2.846153846153846 1.125 0  2.923076923076923 1.125 0  3 1.125 0  1 1.1875 0  1.076923076923077 1.1875 0  1.153846153846154 1.1875 0  1.230769230769231 1.1875 0  1.307692307692308 1.1875 0  1.384615384615385 1.1875 0  1.461538461538462 1.1875 0  1.538461538461538 1.1875 0  1.615384615384615 1.1875 0  1.692307692307692 1.1875 0  1.769230769230769 1.1875 0  1.846153846153846 1.1875 0  1.923076923076923 1.1875 0  2 1.1875 0  2.076923076923077 1.1875 0  2.153846153846154 1.1875 0  2.230769230769231 1.1875 0  2.307692307692307 1.1875 0  2.384615384615385 1.1875 0  2.461538461538462 1.1875 0  2.538461538461538 1.1875 0  2.615384615384615 1.1875 0  2.692307692307693 1.1875 0  2.769230769230769 1.1875 0  2.846153846153846 1.1875 0  2.923076923076923 1.1875 0  3 1.1875 0  1 1.25 0  1.076923076923077 1.25 0  1.153846153846154 1.25 0  1.230769230769231 1.25 0  1.307692307692308 1.25 0  1.384615384615385 1.25 0  1.461538461538462 1.25 0  1.538461538461538 1.25 0  1.615384615384615 1.25 0  1.692307692307692 1.25 0  1.769230769230769 1.25 0  1.846153846153846 1.25 0  1.923076923076923 1.25 0  2 1.25 0  2.076923076923077 1.25 0  2.153846153846154 1.25 0  2.230769230769231 1.25 0  2.307692307692307 1.25 0  2.384615384615385 1.25 0  2.461538461538462 1.25 0  2.538461538461538 1.25 0  2.615384615384615 1.25 0  2.692307692307693 1.25 0  2.769230769230769 1.25 0  2.846153846153846 1.25 0  2.923076923076923 1.25 0  3 1.25 0  </DataArray>
</Points>
<Cells>
<DataArray  type="UInt32"  Name="connectivity"  format="ascii">0 1 28  0 27 28  1 2 29  1 28 29  2 3 30  2 29 30  3 4 31  3 30 31  4 5 32  4 31 32  5 6 33  5 32 33  6 7 34  6 33 34  7 8 35  7 34 35  8 9 36  8 35 36  9 10 37  9 36 37  10 11 38  10 37 38  11 12 39  11 38 39  12 13 40  12 39 40  13 14 41  13 40 41  14 15 42  14 41 42  15 16 43  15 42 43  16 17 44  16 43 44  17 18 45  17 44 45  18 19 46  18 45 46  19 20 47  19 46 47  20 21 48  20 47 48  21 22 49  21 48 49  22 23 50  22 49 50  23 24 51  23 50 51  24 25 52  24 51 52  25 26 53  25 52 53  27 28 55  27 54 55  28 29 56  28 55 56  29 30 57  29 56 57  30 31 58  30 57 58  31 32 59  31 58 59  32 33 60  32 59 60  33 34 61  33 60 61  34 35 62  34 61 62  35 36 63  35 62 63  36 37 64  36 63 64  37 38 65  37 64 65  38 39 66  38 65 66  39 40 67  39 66 67  40 41 68  40 67 68  41 42 69  41 68 69  42 43 70  42 69 70  43 44 71  43 70 71  44 45 72  44 71 72  45 46 73  45 72 73  46 47 74  46 73 74  47 48 75  47 74 75  48 49 76  48 75 76  49 50 77  49 76 77  50 51 78  50 77 78  51 52 79  51 78 79  52 53 80  52 79 80  54 55 82  54 81 82  55 56 83  55 82 83  56 57 84  56 83 84  57 58 85  57 84 85  58 59 86  58 85 86  59 60 87  59 86 87  60 61 88  60 87 88  61 62 89  61 88 89  62 63 90  62 89 90  63 64 91  63 90 91  64 65 92  64 91 92  65 66 93  65 92 93  66 67 94  66 93 94  67 68 95  67 94 95  68 69 96  68 95 96  69 70 97  69 96 97  70 71 98  70 97 98  71 72 99  71 98 99  72 73 100  72 99 100  73 74 101  73 100 101  74 75 102  74 101 102  75 76 103  75 102 103  76 77 104  76 103 104  77 78 105  77 104 105  78 79 106  78 105 106  79 80 107  79 106 107  81 82 109  81 108 109  82 83 110  82 109 110  83 84 111  83 110 111  84 85 112  84 111 112  85 86 113  85 112 113  86 87 114  86 113 114  87 88 115  87 114 115  88 89 116  88 115 116  89 90 117  89 116 117  90 91 118  90 117 118  91 92 119  91 118 119  92 93 120  92 119 120  93 94 121  93 120 121  94 95 122  94 121 122  95 96 123  95 122 123  96 97 124  96 123 124  97 98 125  97 124 125  98 99 126  98 125 126  99 100 127  99 126 127  100 101 128  100 127 128  101 102 129  101 128 129  102 103 130  102 129 130  103 104 131  103 130 131  104 105 132  104 131 132  105 106 133  105 132 133  106 107 134  106 133 134  </DataArray>
<DataArray  type="UInt32"  Name="offsets"  format="ascii">3 6 9 12 15 18 21 24 27 30 33 36 39 42 45 48 51 54 57 60 63 66 69 72 75 78 81 84 87 90 93 96 99 102 105 108 111 114 117 120 123 126 129 132 135 138 141 144 147 150 153 156 159 162 165 168 171 174 177 180 183 186 189 192 195 198 201 204 207 210 213 216 219 222 225 228 231 234 237 240 243 246 249 252 255 258 261 264 267 270 273 276 279 282 285 288 291 294 297 300 303 306 309 312 315 318 321 324 327 330 333 336 339 342 345 348 351 354 357 360 363 366 369 372 375 378 381 384 387 390 393 396 399 402 405 408 411 414 417 420 423 426 429 432 435 438 441 444 447 450 453 456 459 462 465 468 471 474 477 480 483 486 489 492 495 498 501 504 507 510 513 516 519 522 525 528 531 534 537 540 543 546 549 552 555 558 561 564 567 570 573 576 579 582 585 588 591 594 597 600 603 606 609 612 615 618 621 624 </DataArray>
<DataArray  type="UInt8"  Name="types"  format="ascii">5 5 5 5 5 5 5 5 5 5 5 5 5 5 5 5 5 5 5 5 5 5 5 5 5 5 5 5 5 5 5 5 5 5 5 5 5 5 5 5 5 5 5 5 5 5 5 5 5 5 5 5 5 5 5 5 5 5 5 5 5 5 5 5 5 5 5 5 5 5 5 5 5 5 5 5 5 5 5 5 5 5 5 5 5 5 5 5 5 5 5 5 5 5 5 5 5 5 5 5 5 5 5 5 5 5 5 5 5 5 5 5 5 5 5 5 5 5 5 5 5 5 5 5 5 5 5 5 5 5 5 5 5 5 5 5 5 5 5 5 5 5 5 5 5 5 5 5 5 5 5 5 5 5 5 5 5 5 5 5 5 5 5 5 5 5 5 5 5 5 5 5 5 5 5 5 5 5 5 5 5 5 5 5 5 5 5 5 5 5 5 5 5 5 5 5 5 5 5 5 5 5 5 5 5 5 5 5 </DataArray>
</Cells>
<PointData  Vectors="Displacement"> 
<DataArray  type="Float64"  Name="Displacement"  NumberOfComponents="3" format="ascii">-2.1617987291912026e-05 6.6233169046845980e-05 0.0000000000000000e+00  6.5789670869663344e-06 1.3057753221333350e-05 0.0000000000000000e+00  1.9130800811485969e-05 1.4286333264707468e-05 0.0000000000000000e+00  1.3132791922514096e-05 2.6364458545498410e-05 0.0000000000000000e+00  7.7862605872014140e-06 2.9251634851813146e-05 0.0000000000000000e+00  5.9632365259204980e-06 2.9742853918664776e-05 0.0000000000000000e+00  5.3505066042571665e-06 2.9475974027084809e-05 0.0000000000000000e+00  4.6585682814940804e-06 2.9558115556256909e-05 0.0000000000000000e+00  4.1589986022016727e-06 2.9671947876729521e-05 0.0000000000000000e+00  3.6480530674857446e-06 2.9503222690708811e-05 0.0000000000000000e+00  3.2259902356051063e-06 2.9678865002858776e-05 0.0000000000000000e+00  2.8460883322043740e-06 2.9241931824529115e-05 0.0000000000000000e+00  2.4939718870542897e-06 2.9409735086659348e-05 0.0000000000000000e+00  2.2166322707619163e-06 2.8772645636826315e-05 0.0000000000000000e+00  1.9335427522682039e-06 2.8843468476413446e-05 0.0000000000000000e+00  1.7370739636232307e-06 2.8139458359116724e-05 0.0000000000000000e+00  1.5172270727345885e-06 2.8012411742113036e-05 0.0000000000000000e+00  1.3930736352154160e-06 2.7337755133100644e-05 0.0000000000000000e+00  1.2353417793453884e-06 2.6981671336009924e-05 0.0000000000000000e+00  1.1842113084719517e-06 2.6360865573229521e-05 0.0000000000000000e+00  1.1027239600500022e-06 2.5779336501959345e-05 0.0000000000000000e+00  1.1515779558218317e-06 2.5206746053270454e-05 0.0000000000000000e+00  1.3247802744106691e-06 2.4439391438204618e-05 0.0000000000000000e+00  2.6054621536918482e-06 2.3900402663126260e-05 0.0000000000000000e+00  6.0531261484039018e-06 2.5469194593260193e-05 0.0000000000000000e+00  1.0672789725636699e-05 2.8401253019010594e-05 0.0000000000000000e+00  7.4818012838439910e-06 2.0008941959494216e-05 0.0000000000000000e+00  2.9107414902052125e-05 3.1587767581479640e-05 0.0000000000000000e+00  2.4022674203493725e-05 2.2549587123616578e-06 0.0000000000000000e+00  1.5563539066590048e-05 6.9362333617569298e-06 0.0000000000000000e+00  9.1707268489403549e-06 1.8605793502297360e-05 0.0000000000000000e+00  4.1034911297476244e-06 2.1010566423635619e-05 0.0000000000000000e+00  2.0760366408985199e-06 2.1107418445404147e-05 0.0000000000000000e+00  1.5267779372513372e-06 2.1374057107329738e-05 0.0000000000000000e+00  1.2712049897192078e-06 2.1507590161825041e-05 0.0000000000000000e+00  1.0232586907334753e-06 2.1675842596031842e-05 0.0000000000000000e+00  8.3848099359488869e-07 2.1747377673683414e-05 0.0000000000000000e+00  6.6555487264252395e-07 2.1743777286864042e-05 0.0000000000000000e+00  5.3722207985881969e-07 2.1731742716375722e-05 0.0000000000000000e+00  4.2975957160056937e-07 2.1597042437387965e-05 0.0000000000000000e+00  3.4589858691504313e-07 2.1504293402959862e-05 0.0000000000000000e+00  2.9595503611929713e-07 2.1261404852953447e-05 0.0000000000000000e+00  2.5147469533078061e-07 2.1110010191947251e-05 0.0000000000000000e+00  2.5413426388116252e-07 2.0773310941687375e-05 0.0000000000000000e+00  2.5004572442510084e-07 2.0564457206678789e-05 0.0000000000000000e+00  3.0351970244740792e-07 2.0174485445566598e-05 0.0000000000000000e+00  3.4825241794775971e-07 1.9879082452609790e-05 0.0000000000000000e+00  4.5306180294059290e-07 1.9454951781965569e-05 0.0000000000000000e+00  5.2371238713475744e-07 1.9019626655452473e-05 0.0000000000000000e+00  7.5424412038598039e-07 1.8541233061853417e-05 0.0000000000000000e+00  1.5955264522344014e-06 1.7817818302035578e-05 0.0000000000000000e+00  4.4381496248790156e-06 1.9302918151229812e-05 0.0000000000000000e+00  1.0059748757669605e-05 2.0422086850833171e-05 0.0000000000000000e+00  1.3711109999821316e-05 1.9336060434834829e-05 0.0000000000000000e+00  4.2675606310221776e-05 5.5249611232885961e-06 0.0000000000000000e+00  3.9539983298970278e-05 1.5404638491802918e-06 0.0000000000000000e+00  2.0837869565304718e-05 1.1274120007933225e-05 0.0000000000000000e+00  1.1426805508396318e-05 1.5872271550909420e-05 0.0000000000000000e+00  3.6371314644364126e-06 1.6910039995315225e-05 0.0000000000000000e+00  7.9983003885814757e-07 1.6768195075430801e-05 0.0000000000000000e+00  6.2401148802891891e-07 1.6906463223715462e-05 0.0000000000000000e+00  5.3375224771305835e-07 1.6905852293283592e-05 0.0000000000000000e+00  5.1005502807484025e-07 1.7081276181296269e-05 0.0000000000000000e+00  4.1446754770317184e-07 1.7021676693183152e-05 0.0000000000000000e+00  4.4235597265475456e-07 1.7099078263680696e-05 0.0000000000000000e+00  3.3571115645595465e-07 1.6955745871275634e-05 0.0000000000000000e+00  3.8390917809997152e-07 1.6944229865967416e-05 0.0000000000000000e+00  2.8339917254489383e-07 1.6748094719891506e-05 0.0000000000000000e+00  3.2761246152035986e-07 1.6639944840399971e-05 0.0000000000000000e+00  2.5174264062384209e-07 1.6428638896065700e-05 0.0000000000000000e+00  2.7947778293642649e-07 1.6220333009811147e-05 0.0000000000000000e+00  2.3621368927192016e-07 1.6008653785580828e-05 0.0000000000000000e+00  2.4203948945955594e-07 1.5719305833513594e-05 0.0000000000000000e+00  2.3828331097531183e-07 1.5501735579761635e-05 0.0000000000000000e+00  2.1734913400531985e-07 1.5159246622087923e-05 0.0000000000000000e+00  2.6536631162995239e-07 1.4948581860808076e-05 0.0000000000000000e+00  1.8417073844852090e-07 1.4646194643494266e-05 0.0000000000000000e+00  9.3876972852842129e-07 1.4476698281234121e-05 0.0000000000000000e+00  2.2343844758479908e-06 1.3476705301402850e-05 0.0000000000000000e+00  5.7987452147175131e-06 1.2030490086678041e-05 0.0000000000000000e+00  1.2162902657537686e-05 1.6747359269962410e-05 0.0000000000000000e+00  4.8865895224553254e-05 -2.1295124630045279e-05 0.0000000000000000e+00  4.4537655811440015e-05 7.4904444520682058e-06 0.0000000000000000e+00  2.0574914258770412e-05 2.2109267251457317e-05 0.0000000000000000e+00  1.0543987718157364e-05 1.5490058064921695e-05 0.0000000000000000e+00  1.9469978434224476e-06 1.3350820579472653e-05 0.0000000000000000e+00  -2.5586178305286595e-07 1.2888215973396415e-05 0.0000000000000000e+00  -2.7919255986370670e-07 1.3029532900151041e-05 0.0000000000000000e+00  -1.4976654235915264e-07 1.3173415637390664e-05 0.0000000000000000e+00  -7.8003444882835120e-08 1.3225315801073856e-05 0.0000000000000000e+00  -7.6005229028025218e-08 1.3271007249324780e-05 0.0000000000000000e+00  -2.1775663193891438e-08 1.3226564399850742e-05 0.0000000000000000e+00  1.3815089471450222e-08 1.3196438340690362e-05 0.0000000000000000e+00  2.8861189479509772e-08 1.3098825911799179e-05 0.0000000000000000e+00  9.4292242255842436e-08 1.3001557491723773e-05 0.0000000000000000e+00  7.3231375761221746e-08 1.2870560527955887e-05 0.0000000000000000e+00  1.6123709270437470e-07 1.2716515943148622e-05 0.0000000000000000e+00  1.1719560622945056e-07 1.2564318876734183e-05 0.0000000000000000e+00  2.1051471063391949e-07 1.2367847479070148e-05 0.0000000000000000e+00  1.6285198080929849e-07 1.2200175776110535e-05 0.0000000000000000e+00  2.4241643108623515e-07 1.1976694847170990e-05 0.0000000000000000e+00  2.0268087941562329e-07 1.1798169445020175e-05 0.0000000000000000e+00  2.5052989322692292e-07 1.1569493458750380e-05 0.0000000000000000e+00  1.8950080585214517e-07 1.1433279350825538e-05 0.0000000000000000e+00  4.9171625011976968e-07 1.1098010147969617e-05 0.0000000000000000e+00  1.6573038016543795e-06 1.0176759922627914e-05 0.0000000000000000e+00  2.8973034908532480e-06 7.8761249119868248e-06 0.0000000000000000e+00  6.9535419395934950e-06 9.7627716694282984e-06 0.0000000000000000e+00  2.1202309238533887e-05 -5.9813681161317473e-05 0.0000000000000000e+00  2.7971677628555258e-05 1.6228149239323530e-05 0.0000000000000000e+00  2.7164866610336839e-05 3.3949126380617420e-05 0.0000000000000000e+00  1.5203759762892729e-05 1.8909910289727200e-05 0.0000000000000000e+00  -7.0365925250018452e-07 1.3431728242791756e-05 0.0000000000000000e+00  7.4592920404410901e-07 1.2691932338933421e-05 0.0000000000000000e+00  -5.7705357895052143e-07 1.2196203846093884e-05 0.0000000000000000e+00  -8.1441381268352717e-08 1.2418748483158288e-05 0.0000000000000000e+00  -5.7808903345260784e-08 1.2392606347637584e-05 0.0000000000000000e+00  -4.2761839406190508e-08 1.2403289205329086e-05 0.0000000000000000e+00  1.3435056012268346e-08 1.2354455275113208e-05 0.0000000000000000e+00  4.2811065450135949e-08 1.2282320366576877e-05 0.0000000000000000e+00  8.1909133967936817e-08 1.2204560838397110e-05 0.0000000000000000e+00  1.1360601868199001e-07 1.2055434825899129e-05 0.0000000000000000e+00  1.3019275800376856e-07 1.1959596818256164e-05 0.0000000000000000e+00  1.6779245748940567e-07 1.1751508271828154e-05 0.0000000000000000e+00  1.6362367383641898e-07 1.1643052178527065e-05 0.0000000000000000e+00  2.0530966258088336e-07 1.1400542256310581e-05 0.0000000000000000e+00  1.8683871222945038e-07 1.1275702104665235e-05 0.0000000000000000e+00  2.2524175059058956e-07 1.1029785177112126e-05 0.0000000000000000e+00  2.0063698273646001e-07 1.0887388148058870e-05 0.0000000000000000e+00  2.2488018921405476e-07 1.0667046066693401e-05 0.0000000000000000e+00  1.8110129499044191e-07 1.0511225393271543e-05 0.0000000000000000e+00  1.1454584489657596e-07 1.0378305497888661e-05 0.0000000000000000e+00  5.1483573520885594e-07 9.3909916110703839e-06 0.0000000000000000e+00  1.5049204946641916e-06 6.2623885035063341e-06 0.0000000000000000e+00  1.3778419158062293e-06 5.4834742481840610e-06 0.0000000000000000e+00  </DataArray> 
</PointData> 
</Piece>
</UnstructuredGrid>
</VTKFile>