<?xml version="1.0"?>
<VTKFile type="UnstructuredGrid"  version="0.1"  >
<UnstructuredGrid>
<Piece  NumberOfPoints="135" NumberOfCells="208">
<Points>
<DataArray  type="Float64"  NumberOfComponents="3"  format="ascii">1 1 0  1.076923076923077 1 0  1.153846153846154 1 0  1.230769230769231 1 0  1.307692307692308 1 0  1.384615384615385 1 0  1.461538461538462 1 0  1.538461538461538 1 0  1.615384615384615 1 0  1.692307692307692 1 0  1.769230769230769 1 0  1.846153846153846 1 0  1.923076923076923 1 0  2 1 0  2.076923076923077 1 0  2.153846153846154 1 0  2.230769230769231 1 0  2.307692307692307 1 0  2.384615384615385 1 0  2.461538461538462 1 0  2.538461538461538 1 0  2.615384615384615 1 0  2.692307692307693 1 0  2.769230769230769 1 0  2.846153846153846 1 0  2.923076923076923 1 0  3 1 0  1 1.0625 0  1.076923076923077 1.0625 0  1.153846153846154 1.0625 0  1.230769230769231 1.0625 0  1.307692307692308 1.0625 0  1.384615384615385 1.0625 0  1.461538461538462 1.0625 0  1.538461538461538 1.0625 0  1.615384615384615 1.0625 0  1.692307692307692 1.0625 0  1.769230769230769 1.0625 0  1.846153846153846 1.0625 0  1.923076923076923 1.0625 0  2 1.0625 0  2.076923076923077 1.0625 0  2.153846153846154 1.0625 0  2.230769230769231 1.0625 0  2.307692307692307 1.0625 0  2.384615384615385 1.0625 0  2.461538461538462 1.0625 0  2.538461538461538 1.0625 0  2.615384615384615 1.0625 0  2.692307692307693 1.0625 0  2.769230769230769 1.0625 0  2.846153846153846 1.0625 0  2.923076923076923 1.0625 0  3 1.0625 0  1 1.125 0  1.076923076923077 1.125 0  1.153846153846154 1.125 0  1.230769230769231 1.125 0  1.307692307692308 1.125 0  1.384615384615385 1.125 0  1.461538461538462 1.125 0  1.538461538461538 1.125 0  1.615384615384615 1.125 0  1.692307692307692 1.125 0  1.769230769230769 1.125 0  1.846153846153846 1.125 0  1.923076923076923 1.125 0  2 1.125 0  2.076923076923077 1.125 0  2.153846153846154 1.125 0  2.230769230769231 1.125 0  2.307692307692307 1.125 0  2.384615384615385 1.125 0  2.461538461538462 1.125 0  2.538461538461538 1.125 0  2.615384615384615 1.125 0  2.692307692307693 1.125 0  2.769230769230769 1.125 0  2.846153846153846 1.125 0  2.923076923076923 1.125 0  3 1.125 0  1 1.1875 0  1.076923076923077 1.1875 0  1.153846153846154 1.1875 0  1.230769230769231 1.1875 0  1.307692307692308 1.1875 0  1.384615384615385 1.1875 0  1.461538461538462 1.1875 0  1.538461538461538 1.1875 0  1.615384615384615 1.1875 0  1.692307692307692 1.1875 0  1.769230769230769 1.1875 0  1.846153846153846 1.1875 0  1.923076923076923 1.1875 0  2 1.1875 0  2.076923076923077 1.1875 0  2.153846153846154 1.1875 0  2.230769230769231 1.1875 0  2.307692307692307 1.1875 0  2.384615384615385 1.1875 0  2.461538461538462 1.1875 0  2.538461538461538 1.1875 0  2.615384615384615 1.1875 0  2.692307692307693 1.1875 0  2.769230769230769 1.1875 0  2.846153846153846 1.1875 0  2.923076923076923 1.1875 0  3 1.1875 0  1 1.25 0  1.076923076923077 1.25 0  1.153846153846154 1.25 0  1.230769230769231 1.25 0  1.307692307692308 1.25 0  1.384615384615385 1.25 0  1.461538461538462 1.25 0  1.538461538461538 1.25 0  1.615384615384615 1.25 0  1.692307692307692 1.25 0  1.769230769230769 1.25 0  1.846153846153846 1.25 0  1.923076923076923 1.25 0  2 1.25 0  2.076923076923077 1.25 0  2.153846153846154 1.25 0  2.230769230769231 1.25 0  2.307692307692307 1.25 0  2.384615384615385 1.25 0  2.461538461538462 1.25 0  2.538461538461538 1.25 0  2.615384615384615 1.25 0  2.692307692307693 1.25 0  2.769230769230769 1.25 0  2.846153846153846 1.25 0  2.923076923076923 1.25 0  3 1.25 0  </DataArray>
</Points>
<Cells>
<DataArray  type="UInt32"  Name="connectivity"  format="ascii">0 1 28  0 27 28  1 2 29  1 28 29  2 3 30  2 29 30  3 4 31  3 30 31  4 5 32  4 31 32  5 6 33  5 32 33  6 7 34  6 33 34  7 8 35  7 34 35  8 9 36  8 35 36  9 10 37  9 36 37  10 11 38  10 37 38  11 12 39  11 38 39  12 13 40  12 39 40  13 14 41  13 40 41  14 15 42  14 41 42  15 16 43  15 42 43  16 17 44  16 43 44  17 18 45  17 44 45  18 19 46  18 45 46  19 20 47  19 46 47  20 21 48  20 47 48  21 22 49  21 48 49  22 23 50  22 49 50  23 24 51  23 50 51  24 25 52  24 51 52  25 26 53  25 52 53  27 28 55  27 54 55  28 29 56  28 55 56  29 30 57  29 56 57  30 31 58  30 57 58  31 32 59  31 58 59  32 33 60  32 59 60  33 34 61  33 60 61  34 35 62  34 61 62  35 36 63  35 62 63  36 37 64  36 63 64  37 38 65  37 64 65  38 39 66  38 65 66  39 40 67  39 66 67  40 41 68  40 67 68  41 42 69  41 68 69  42 43 70  42 69 70  43 44 71  43 70 71  44 45 72  44 71 72  45 46 73  45 72 73  46 47 74  46 73 74  47 48 75  47 74 75  48 49 76  48 75 76  49 50 77  49 76 77  50 51 78  50 77 78  51 52 79  51 78 79  52 53 80  52 79 80  54 55 82  54 81 82  55 56 83  55 82 83  56 57 84  56 83 84  57 58 85  57 84 85  58 59 86  58 85 86  59 60 87  59 86 87  60 61 88  60 87 88  61 62 89  61 88 89  62 63 90  62 89 90  63 64 91  63 90 91  64 65 92  64 91 92  65 66 93  65 92 93  66 67 94  66 93 94  67 68 95  67 94 95  68 69 96  68 95 96  69 70 97  69 96 97  70 71 98  70 97 98  71 72 99  71 98 99  72 73 100  72 99 100  73 74 101  73 100 101  74 75 102  74 101 102  75 76 103  75 102 103  76 77 104  76 103 104  77 78 105  77 104 105  78 79 106  78 105 106  79 80 107  79 106 107  81 82 109  81 108 109  82 83 110  82 109 110  83 84 111  83 110 111  84 85 112  84 111 112  85 86 113  85 112 113  86 87 114  86 113 114  87 88 115  87 114 115  88 89 116  88 115 116  89 90 117  89 116 117  90 91 118  90 117 118  91 92 119  91 118 119  92 93 120  92 119 120  93 94 121  93 120 121  94 95 122  94 121 122  95 96 123  95 122 123  96 97 124  96 123 124  97 98 125  97 124 125  98 99 126  98 125 126  99 100 127  99 126 127  100 101 128  100 127 128  101 102 129  101 128 129  102 103 130  102 129 130  103 104 131  103 130 131  104 105 132  104 131 132  105 106 133  105 132 133  106 107 134  106 133 134  </DataArray>
<DataArray  type="UInt32"  Name="offsets"  format="ascii">3 6 9 12 15 18 21 24 27 30 33 36 39 42 45 48 51 54 57 60 63 66 69 72 75 78 81 84 87 90 93 96 99 102 105 108 111 114 117 120 123 126 129 132 135 138 141 144 147 150 153 156 159 162 165 168 171 174 177 180 183 186 189 192 195 198 201 204 207 210 213 216 219 222 225 228 231 234 237 240 243 246 249 252 255 258 261 264 267 270 273 276 279 282 285 288 291 294 297 300 303 306 309 312 315 318 321 324 327 330 333 336 339 342 345 348 351 354 357 360 363 366 369 372 375 378 381 384 387 390 393 396 399 402 405 408 411 414 417 420 423 426 429 432 435 438 441 444 447 450 453 456 459 462 465 468 471 474 477 480 483 486 489 492 495 498 501 504 507 510 513 516 519 522 525 528 531 534 537 540 543 546 549 552 555 558 561 564 567 570 573 576 579 582 585 588 591 594 597 600 603 606 609 612 615 618 621 624 </DataArray>
<DataArray  type="UInt8"  Name="types"  format="ascii">5 5 5 5 5 5 5 5 5 5 5 5 5 5 5 5 5 5 5 5 5 5 5 5 5 5 5 5 5 5 5 5 5 5 5 5 5 5 5 5 5 5 5 5 5 5 5 5 5 5 5 5 5 5 5 5 5 5 5 5 5 5 5 5 5 5 5 5 5 5 5 5 5 5 5 5 5 5 5 5 5 5 5 5 5 5 5 5 5 5 5 5 5 5 5 5 5 5 5 5 5 5 5 5 5 5 5 5 5 5 5 5 5 5 5 5 5 5 5 5 5 5 5 5 5 5 5 5 5 5 5 5 5 5 5 5 5 5 5 5 5 5 5 5 5 5 5 5 5 5 5 5 5 5 5 5 5 5 5 5 5 5 5 5 5 5 5 5 5 5 5 5 5 5 5 5 5 5 5 5 5 5 5 5 5 5 5 5 5 5 5 5 5 5 5 5 5 5 5 5 5 5 5 5 5 5 5 5 </DataArray>
</Cells>
<PointData  Vectors="Displacement"> 
<DataArray  type="Float64"  Name="Displacement"  NumberOfComponents="3" format="ascii">9.6058280484344241e-05 1.3771389053677681e-04 0.0000000000000000e+00  1.2372722610883149e-04 4.4832786274459977e-05 0.0000000000000000e+00  1.3411897708608394e-04 6.2306976143133809e-05 0.0000000000000000e+00  1.3002808977651041e-04 7.4709905966409063e-05 0.0000000000000000e+00  1.2108448338873883e-04 8.5216889563890261e-05 0.0000000000000000e+00  1.0928015636011043e-04 9.4996054181360390e-05 0.0000000000000000e+00  9.2977559137826413e-05 1.0036440753479223e-04 0.0000000000000000e+00  8.0664821643455976e-05 9.9493444409628120e-05 0.0000000000000000e+00  7.2468863300183508e-05 1.0288651846387096e-04 0.0000000000000000e+00  6.3931065291218716e-05 1.0116555651463369e-04 0.0000000000000000e+00  5.8982695147536937e-05 8.9350107543325228e-05 0.0000000000000000e+00  5.7952095349400728e-05 8.2021983809744180e-05 0.0000000000000000e+00  5.3183726052150899e-05 7.4399669298432137e-05 0.0000000000000000e+00  4.3927225604569729e-05 6.9320582310051490e-05 0.0000000000000000e+00  3.4419935945434406e-05 6.8562844610813755e-05 0.0000000000000000e+00  2.8258712023139592e-05 6.8445804003811362e-05 0.0000000000000000e+00  2.0833209046081300e-05 6.4597190374163460e-05 0.0000000000000000e+00  1.5920016833958191e-05 6.0547794855374663e-05 0.0000000000000000e+00  1.0491407229365777e-05 5.5582921653890086e-05 0.0000000000000000e+00  7.1032971470526382e-06 4.8299821315851483e-05 0.0000000000000000e+00  5.5315096779149131e-06 5.0020934203135056e-05 0.0000000000000000e+00  2.4886328550728982e-06 5.0643600092281235e-05 0.0000000000000000e+00  3.2377204487667063e-06 4.5918625873129605e-05 0.0000000000000000e+00  6.7264194737234368e-06 4.1835876909195114e-05 0.0000000000000000e+00  1.4287676874118088e-05 3.7204831196070561e-05 0.0000000000000000e+00  2.2736126491232352e-05 3.7544747433878826e-05 0.0000000000000000e+00  3.5173171424144272e-05 6.3631208864405264e-05 0.0000000000000000e+00  1.3782748369940001e-04 6.5911686990842211e-05 0.0000000000000000e+00  1.3496258691171343e-04 4.6387472170182064e-05 0.0000000000000000e+00  1.2525150909006532e-04 6.0277337472110673e-05 0.0000000000000000e+00  1.1974835740119717e-04 7.4692018073755745e-05 0.0000000000000000e+00  1.1403196825058948e-04 8.7911275067176060e-05 0.0000000000000000e+00  1.0533303277908686e-04 1.0146801543529467e-04 0.0000000000000000e+00  9.3093683545327827e-05 1.0556725802435000e-04 0.0000000000000000e+00  8.1085889687843038e-05 1.0426707669422231e-04 0.0000000000000000e+00  7.1875366339443642e-05 1.0291980746486623e-04 0.0000000000000000e+00  6.9640359265852139e-05 9.9420812901982429e-05 0.0000000000000000e+00  6.6552012504263286e-05 8.7701307888628200e-05 0.0000000000000000e+00  6.2987847303554208e-05 8.2462848088125332e-05 0.0000000000000000e+00  5.5286876960904271e-05 7.5297368411552548e-05 0.0000000000000000e+00  4.6195724112964496e-05 7.2503199701027952e-05 0.0000000000000000e+00  3.7563465795362011e-05 6.9647752505187441e-05 0.0000000000000000e+00  3.0688175950679565e-05 6.5874442179884979e-05 0.0000000000000000e+00  2.4160875757325019e-05 6.2161609054786670e-05 0.0000000000000000e+00  1.9576254425000142e-05 5.8468862874646819e-05 0.0000000000000000e+00  1.3004879121664740e-05 5.2849212515723838e-05 0.0000000000000000e+00  5.8850625565420663e-06 4.6523159159919776e-05 0.0000000000000000e+00  3.0009737059785877e-06 4.6525772827694614e-05 0.0000000000000000e+00  2.2716476945869502e-06 4.6826642156548878e-05 0.0000000000000000e+00  4.2537986035699972e-06 4.0151568410508984e-05 0.0000000000000000e+00  9.2068559923296910e-06 3.3888218496151048e-05 0.0000000000000000e+00  1.4871003568492509e-05 3.0091681677999120e-05 0.0000000000000000e+00  1.6891295486507280e-05 3.4810294026973146e-05 0.0000000000000000e+00  1.7260207715203515e-05 4.6926050803515316e-05 0.0000000000000000e+00  1.3645303197561134e-04 3.7380054072864355e-05 0.0000000000000000e+00  1.3462271582272140e-04 5.1270311519081827e-05 0.0000000000000000e+00  1.2313740635437712e-04 6.5955762458436409e-05 0.0000000000000000e+00  1.1545925910598520e-04 7.9333086906583568e-05 0.0000000000000000e+00  1.0887928144477486e-04 9.3139487870618122e-05 0.0000000000000000e+00  1.0151145514913711e-04 1.0891631180547518e-04 0.0000000000000000e+00  9.1080168683937561e-05 1.1134748393520257e-04 0.0000000000000000e+00  8.4358303991945136e-05 1.0958290787371755e-04 0.0000000000000000e+00  7.9908982367044476e-05 1.0403151558631497e-04 0.0000000000000000e+00  7.8596901100345102e-05 9.8417308981700458e-05 0.0000000000000000e+00  7.0298723487617306e-05 9.2165945938391903e-05 0.0000000000000000e+00  6.4764749964720404e-05 8.5427138000194436e-05 0.0000000000000000e+00  5.6553434434043114e-05 8.2820963853935138e-05 0.0000000000000000e+00  5.0292312364116586e-05 7.7791320899171698e-05 0.0000000000000000e+00  4.5459047677884122e-05 7.3503656088871590e-05 0.0000000000000000e+00  3.7398190558507027e-05 6.9323246581968697e-05 0.0000000000000000e+00  2.9502506748660808e-05 6.5422241601234134e-05 0.0000000000000000e+00  2.1817826059525482e-05 6.0825000522570683e-05 0.0000000000000000e+00  1.4784172735993428e-05 5.5755928781603876e-05 0.0000000000000000e+00  7.6579164832906625e-06 5.1192034231596033e-05 0.0000000000000000e+00  2.9716571269685517e-06 4.7745466366050397e-05 0.0000000000000000e+00  2.9518470952143858e-06 4.5894180594881597e-05 0.0000000000000000e+00  6.4621691456918336e-06 3.8842890532898920e-05 0.0000000000000000e+00  9.9123429425096030e-06 3.1488992537765187e-05 0.0000000000000000e+00  1.3411931006564926e-05 2.8920984634311952e-05 0.0000000000000000e+00  1.4237282376792341e-05 3.4993755632019245e-05 0.0000000000000000e+00  1.4955049812006995e-05 4.4537607024709223e-05 0.0000000000000000e+00  1.2267974744836898e-04 6.9647167619288416e-06 0.0000000000000000e+00  1.2196244766364486e-04 5.2853952605102483e-05 0.0000000000000000e+00  1.1361203346715295e-04 7.2456190145368606e-05 0.0000000000000000e+00  1.0887344224510597e-04 8.2333399405091993e-05 0.0000000000000000e+00  1.0375016118941503e-04 9.6460043395377604e-05 0.0000000000000000e+00  9.7635931069123949e-05 1.1298541254374437e-04 0.0000000000000000e+00  9.2042452924108182e-05 1.1644597460167863e-04 0.0000000000000000e+00  8.7022571221485160e-05 1.1055525533044559e-04 0.0000000000000000e+00  8.5435529534932692e-05 1.0063072725322498e-04 0.0000000000000000e+00  8.2460411062885045e-05 1.0010498666003211e-04 0.0000000000000000e+00  7.3893221371191796e-05 9.6898530814451713e-05 0.0000000000000000e+00  6.7192877040684939e-05 8.7693729934556024e-05 0.0000000000000000e+00  6.1986648850488190e-05 8.5893444112879785e-05 0.0000000000000000e+00  5.5344083173366426e-05 8.0047429210888403e-05 0.0000000000000000e+00  4.8852962080941361e-05 7.6757918966459919e-05 0.0000000000000000e+00  4.0773342258809195e-05 7.2576612545710489e-05 0.0000000000000000e+00  3.3784329070623832e-05 6.7703872031872614e-05 0.0000000000000000e+00  2.6234949561404272e-05 6.4122417029448782e-05 0.0000000000000000e+00  1.7699383792494585e-05 5.8043736427991999e-05 0.0000000000000000e+00  1.1050422854109371e-05 5.5074002120697127e-05 0.0000000000000000e+00  5.8999975440602433e-06 4.9942906565362253e-05 0.0000000000000000e+00  4.9121238086944128e-06 4.3563742536217906e-05 0.0000000000000000e+00  7.6414504587960018e-06 3.7172581443101351e-05 0.0000000000000000e+00  9.4326716477618236e-06 2.9827954836856660e-05 0.0000000000000000e+00  9.2266377037820680e-06 2.8656112192343399e-05 0.0000000000000000e+00  9.3312534622990745e-06 3.4353175281936990e-05 0.0000000000000000e+00  1.0182520777877677e-05 4.2966067855853696e-05 0.0000000000000000e+00  4.5704703809729641e-05 -6.7326093001824692e-05 0.0000000000000000e+00  8.6569616557795694e-05 5.3155150958533497e-05 0.0000000000000000e+00  9.8754424611868612e-05 7.4198888656310088e-05 0.0000000000000000e+00  9.8310428374990251e-05 8.3292152707123003e-05 0.0000000000000000e+00  9.2484735900190616e-05 9.9826393157613225e-05 0.0000000000000000e+00  9.2473885686168253e-05 1.1577507266977879e-04 0.0000000000000000e+00  9.3674438870923474e-05 1.1855259782583304e-04 0.0000000000000000e+00  9.4157625912796961e-05 1.1236658052738182e-04 0.0000000000000000e+00  8.9808438635178761e-05 1.0181228726847643e-04 0.0000000000000000e+00  8.0717132592354529e-05 1.0511034762392662e-04 0.0000000000000000e+00  7.8328481373488677e-05 1.0046300189934570e-04 0.0000000000000000e+00  7.2756197841427478e-05 8.9723931136026039e-05 0.0000000000000000e+00  6.7876218661042071e-05 9.1497573211745452e-05 0.0000000000000000e+00  5.8857848359472410e-05 8.5743417867788639e-05 0.0000000000000000e+00  5.0686259759540038e-05 8.0889107680538793e-05 0.0000000000000000e+00  4.5524015891954832e-05 7.6231349608758348e-05 0.0000000000000000e+00  3.7215795411606225e-05 7.1685757683594945e-05 0.0000000000000000e+00  2.9773447096714683e-05 6.9196777389123146e-05 0.0000000000000000e+00  2.1657591587271222e-05 6.2479255800612188e-05 0.0000000000000000e+00  1.5181056198835288e-05 6.0152372863168593e-05 0.0000000000000000e+00  1.1488018017069320e-05 5.2473821758699205e-05 0.0000000000000000e+00  9.4367134186422458e-06 4.3364649383912143e-05 0.0000000000000000e+00  1.0494805494685659e-05 3.6881797429806894e-05 0.0000000000000000e+00  9.6203483877520673e-06 3.0441203078674742e-05 0.0000000000000000e+00  6.7730231317279981e-06 3.0125560946494675e-05 0.0000000000000000e+00  4.2792303477593630e-06 3.5195832984608757e-05 0.0000000000000000e+00  3.4618678927008569e-06 4.3650904920832085e-05 0.0000000000000000e+00  </DataArray> 
</PointData> 
</Piece>
</UnstructuredGrid>
</VTKFile>