<?xml version="1.0"?>
<VTKFile type="UnstructuredGrid"  version="0.1"  >
<UnstructuredGrid>
<Piece  NumberOfPoints="135" NumberOfCells="208">
<Points>
<DataArray  type="Float64"  NumberOfComponents="3"  format="ascii">1 1 0  1.076923076923077 1 0  1.153846153846154 1 0  1.230769230769231 1 0  1.307692307692308 1 0  1.384615384615385 1 0  1.461538461538462 1 0  1.538461538461538 1 0  1.615384615384615 1 0  1.692307692307692 1 0  1.769230769230769 1 0  1.846153846153846 1 0  1.923076923076923 1 0  2 1 0  2.076923076923077 1 0  2.153846153846154 1 0  2.230769230769231 1 0  2.307692307692307 1 0  2.384615384615385 1 0  2.461538461538462 1 0  2.538461538461538 1 0  2.615384615384615 1 0  2.692307692307693 1 0  2.769230769230769 1 0  2.846153846153846 1 0  2.923076923076923 1 0  3 1 0  1 1.0625 0  1.076923076923077 1.0625 0  1.153846153846154 1.0625 0  1.230769230769231 1.0625 0  1.307692307692308 1.0625 0  1.384615384615385 1.0625 0  1.461538461538462 1.0625 0  1.538461538461538 1.0625 0  1.615384615384615 1.0625 0  1.692307692307692 1.0625 0  1.769230769230769 1.0625 0  1.846153846153846 1.0625 0  1.923076923076923 1.0625 0  2 1.0625 0  2.076923076923077 1.0625 0  2.153846153846154 1.0625 0  2.230769230769231 1.0625 0  2.307692307692307 1.0625 0  2.384615384615385 1.0625 0  2.461538461538462 1.0625 0  2.538461538461538 1.0625 0  2.615384615384615 1.0625 0  2.692307692307693 1.0625 0  2.769230769230769 1.0625 0  2.846153846153846 1.0625 0  2.923076923076923 1.0625 0  3 1.0625 0  1 1.125 0  1.076923076923077 1.125 0  1.153846153846154 1.125 0  1.230769230769231 1.125 0  1.307692307692308 1.125 0  1.384615384615385 1.125 0  1.461538461538462 1.125 0  1.538461538461538 1.125 0  1.615384615384615 1.125 0  1.692307692307692 1.125 0  1.769230769230769 1.125 0  1.846153846153846 1.125 0  1.923076923076923 1.125 0  2 1.125 0  2.076923076923077 1.125 0  2.153846153846154 1.125 0  2.230769230769231 1.125 0  2.307692307692307 1.125 0  2.384615384615385 1.125 0  2.461538461538462 1.125 0  2.538461538461538 1.125 0  2.615384615384615 1.125 0  2.692307692307693 1.125 0  2.769230769230769 1.125 0  2.846153846153846 1.125 0  2.923076923076923 1.125 0  3 1.125 0  1 1.1875 0  1.076923076923077 1.1875 0  1.153846153846154 1.1875 0  1.230769230769231 1.1875 0  1.307692307692308 1.1875 0  1.384615384615385 1.1875 0  1.461538461538462 1.1875 0  1.538461538461538 1.1875 0  1.615384615384615 1.1875 0  1.692307692307692 1.1875 0  1.769230769230769 1.1875 0  1.846153846153846 1.1875 0  1.923076923076923 1.1875 0  2 1.1875 0  2.076923076923077 1.1875 0  2.153846153846154 1.1875 0  2.230769230769231 1.1875 0  2.307692307692307 1.1875 0  2.384615384615385 1.1875 0  2.461538461538462 1.1875 0  2.538461538461538 1.1875 0  2.615384615384615 1.1875 0  2.692307692307693 1.1875 0  2.769230769230769 1.1875 0  2.846153846153846 1.1875 0  2.923076923076923 1.1875 0  3 1.1875 0  1 1.25 0  1.076923076923077 1.25 0  1.153846153846154 1.25 0  1.230769230769231 1.25 0  1.307692307692308 1.25 0  1.384615384615385 1.25 0  1.461538461538462 1.25 0  1.538461538461538 1.25 0  1.615384615384615 1.25 0  1.692307692307692 1.25 0  1.769230769230769 1.25 0  1.846153846153846 1.25 0  1.923076923076923 1.25 0  2 1.25 0  2.076923076923077 1.25 0  2.153846153846154 1.25 0  2.230769230769231 1.25 0  2.307692307692307 1.25 0  2.384615384615385 1.25 0  2.461538461538462 1.25 0  2.538461538461538 1.25 0  2.615384615384615 1.25 0  2.692307692307693 1.25 0  2.769230769230769 1.25 0  2.846153846153846 1.25 0  2.923076923076923 1.25 0  3 1.25 0  </DataArray>
</Points>
<Cells>
<DataArray  type="UInt32"  Name="connectivity"  format="ascii">0 1 28  0 27 28  1 2 29  1 28 29  2 3 30  2 29 30  3 4 31  3 30 31  4 5 32  4 31 32  5 6 33  5 32 33  6 7 34  6 33 34  7 8 35  7 34 35  8 9 36  8 35 36  9 10 37  9 36 37  10 11 38  10 37 38  11 12 39  11 38 39  12 13 40  12 39 40  13 14 41  13 40 41  14 15 42  14 41 42  15 16 43  15 42 43  16 17 44  16 43 44  17 18 45  17 44 45  18 19 46  18 45 46  19 20 47  19 46 47  20 21 48  20 47 48  21 22 49  21 48 49  22 23 50  22 49 50  23 24 51  23 50 51  24 25 52  24 51 52  25 26 53  25 52 53  27 28 55  27 54 55  28 29 56  28 55 56  29 30 57  29 56 57  30 31 58  30 57 58  31 32 59  31 58 59  32 33 60  32 59 60  33 34 61  33 60 61  34 35 62  34 61 62  35 36 63  35 62 63  36 37 64  36 63 64  37 38 65  37 64 65  38 39 66  38 65 66  39 40 67  39 66 67  40 41 68  40 67 68  41 42 69  41 68 69  42 43 70  42 69 70  43 44 71  43 70 71  44 45 72  44 71 72  45 46 73  45 72 73  46 47 74  46 73 74  47 48 75  47 74 75  48 49 76  48 75 76  49 50 77  49 76 77  50 51 78  50 77 78  51 52 79  51 78 79  52 53 80  52 79 80  54 55 82  54 81 82  55 56 83  55 82 83  56 57 84  56 83 84  57 58 85  57 84 85  58 59 86  58 85 86  59 60 87  59 86 87  60 61 88  60 87 88  61 62 89  61 88 89  62 63 90  62 89 90  63 64 91  63 90 91  64 65 92  64 91 92  65 66 93  65 92 93  66 67 94  66 93 94  67 68 95  67 94 95  68 69 96  68 95 96  69 70 97  69 96 97  70 71 98  70 97 98  71 72 99  71 98 99  72 73 100  72 99 100  73 74 101  73 100 101  74 75 102  74 101 102  75 76 103  75 102 103  76 77 104  76 103 104  77 78 105  77 104 105  78 79 106  78 105 106  79 80 107  79 106 107  81 82 109  81 108 109  82 83 110  82 109 110  83 84 111  83 110 111  84 85 112  84 111 112  85 86 113  85 112 113  86 87 114  86 113 114  87 88 115  87 114 115  88 89 116  88 115 116  89 90 117  89 116 117  90 91 118  90 117 118  91 92 119  91 118 119  92 93 120  92 119 120  93 94 121  93 120 121  94 95 122  94 121 122  95 96 123  95 122 123  96 97 124  96 123 124  97 98 125  97 124 125  98 99 126  98 125 126  99 100 127  99 126 127  100 101 128  100 127 128  101 102 129  101 128 129  102 103 130  102 129 130  103 104 131  103 130 131  104 105 132  104 131 132  105 106 133  105 132 133  106 107 134  106 133 134  </DataArray>
<DataArray  type="UInt32"  Name="offsets"  format="ascii">3 6 9 12 15 18 21 24 27 30 33 36 39 42 45 48 51 54 57 60 63 66 69 72 75 78 81 84 87 90 93 96 99 102 105 108 111 114 117 120 123 126 129 132 135 138 141 144 147 150 153 156 159 162 165 168 171 174 177 180 183 186 189 192 195 198 201 204 207 210 213 216 219 222 225 228 231 234 237 240 243 246 249 252 255 258 261 264 267 270 273 276 279 282 285 288 291 294 297 300 303 306 309 312 315 318 321 324 327 330 333 336 339 342 345 348 351 354 357 360 363 366 369 372 375 378 381 384 387 390 393 396 399 402 405 408 411 414 417 420 423 426 429 432 435 438 441 444 447 450 453 456 459 462 465 468 471 474 477 480 483 486 489 492 495 498 501 504 507 510 513 516 519 522 525 528 531 534 537 540 543 546 549 552 555 558 561 564 567 570 573 576 579 582 585 588 591 594 597 600 603 606 609 612 615 618 621 624 </DataArray>
<DataArray  type="UInt8"  Name="types"  format="ascii">5 5 5 5 5 5 5 5 5 5 5 5 5 5 5 5 5 5 5 5 5 5 5 5 5 5 5 5 5 5 5 5 5 5 5 5 5 5 5 5 5 5 5 5 5 5 5 5 5 5 5 5 5 5 5 5 5 5 5 5 5 5 5 5 5 5 5 5 5 5 5 5 5 5 5 5 5 5 5 5 5 5 5 5 5 5 5 5 5 5 5 5 5 5 5 5 5 5 5 5 5 5 5 5 5 5 5 5 5 5 5 5 5 5 5 5 5 5 5 5 5 5 5 5 5 5 5 5 5 5 5 5 5 5 5 5 5 5 5 5 5 5 5 5 5 5 5 5 5 5 5 5 5 5 5 5 5 5 5 5 5 5 5 5 5 5 5 5 5 5 5 5 5 5 5 5 5 5 5 5 5 5 5 5 5 5 5 5 5 5 5 5 5 5 5 5 5 5 5 5 5 5 5 5 5 5 5 5 </DataArray>
</Cells>
<PointData  Vectors="Displacement"> 
<DataArray  type="Float64"  Name="Displacement"  NumberOfComponents="3" format="ascii">3.1332554442594386e-05 8.4564632850293707e-05 0.0000000000000000e+00  4.7233846445634158e-05 2.2314873344300673e-05 0.0000000000000000e+00  4.6641110980198680e-05 2.8491880188572603e-05 0.0000000000000000e+00  3.9842897157217768e-05 3.0796745549078001e-05 0.0000000000000000e+00  3.1840954545300312e-05 3.8215874317256810e-05 0.0000000000000000e+00  2.2458776046484965e-05 4.3112529444216485e-05 0.0000000000000000e+00  1.5911126569458318e-05 4.4535146127933972e-05 0.0000000000000000e+00  1.0188826341986126e-05 4.4459117249488902e-05 0.0000000000000000e+00  5.0366979440092764e-06 4.6211931695986138e-05 0.0000000000000000e+00  2.3365540117648834e-06 4.7540672411005242e-05 0.0000000000000000e+00  1.4419873882817373e-06 4.5725098849972946e-05 0.0000000000000000e+00  1.0215710445068551e-06 4.5959305337921544e-05 0.0000000000000000e+00  3.6208320949533620e-07 4.3528110957893360e-05 0.0000000000000000e+00  1.0676535248619733e-07 4.4063872698577691e-05 0.0000000000000000e+00  -3.9727720480434613e-07 4.1384340709147265e-05 0.0000000000000000e+00  -5.8742579615515088e-07 4.1768318869340502e-05 0.0000000000000000e+00  -9.0736820410117867e-07 3.9264959678227255e-05 0.0000000000000000e+00  -1.0535515127319091e-06 3.9077370180611830e-05 0.0000000000000000e+00  -1.2122506745079443e-06 3.7084882816430520e-05 0.0000000000000000e+00  -4.3008648931891318e-07 3.6588790698740128e-05 0.0000000000000000e+00  1.2705965514266078e-06 3.6384997791777346e-05 0.0000000000000000e+00  3.4636719422661192e-06 3.5020668199214276e-05 0.0000000000000000e+00  6.8285759838649781e-06 3.5312938475512346e-05 0.0000000000000000e+00  9.1477357614385040e-06 3.1359921996427653e-05 0.0000000000000000e+00  1.0007247476394945e-05 3.0195137992155359e-05 0.0000000000000000e+00  8.3304970674714286e-06 1.8858079653782381e-05 0.0000000000000000e+00  3.2835658658054948e-06 3.1921269443172318e-05 0.0000000000000000e+00  6.0809014782812446e-05 4.2659717541411080e-05 0.0000000000000000e+00  6.7098300697872106e-05 2.9542374207235537e-05 0.0000000000000000e+00  5.6636524460612144e-05 3.8104113255278656e-05 0.0000000000000000e+00  4.1921314704699218e-05 4.3604540999860691e-05 0.0000000000000000e+00  3.0110398785277534e-05 4.8412069829952798e-05 0.0000000000000000e+00  2.3452809797907152e-05 5.5444592173890286e-05 0.0000000000000000e+00  1.6171922551382552e-05 5.6367885478793110e-05 0.0000000000000000e+00  9.5324226549218893e-06 5.7119086222834631e-05 0.0000000000000000e+00  7.3500082153189898e-06 5.8019804492576141e-05 0.0000000000000000e+00  4.9597021883540208e-06 5.8167872116305104e-05 0.0000000000000000e+00  4.2800763627404545e-06 5.7708681090630642e-05 0.0000000000000000e+00  3.7158403856299883e-06 5.7316439535254118e-05 0.0000000000000000e+00  3.3600588218052558e-06 5.6306360344907741e-05 0.0000000000000000e+00  2.9842038004454194e-06 5.5856075982714913e-05 0.0000000000000000e+00  2.7493132136001619e-06 5.4597413967084840e-05 0.0000000000000000e+00  2.4590178073226442e-06 5.3997656054853724e-05 0.0000000000000000e+00  2.3217249200526045e-06 5.2605607776606307e-05 0.0000000000000000e+00  2.1417394474033675e-06 5.1776101947311067e-05 0.0000000000000000e+00  2.1985417917983920e-06 5.0363321329655984e-05 0.0000000000000000e+00  2.6630918611535552e-06 4.9531894511230099e-05 0.0000000000000000e+00  3.7025925463666909e-06 4.8085784386873126e-05 0.0000000000000000e+00  5.9077620754001360e-06 4.6058830775866678e-05 0.0000000000000000e+00  8.9522889112338141e-06 4.5373996898689033e-05 0.0000000000000000e+00  1.1780057212498684e-05 4.3813229201747929e-05 0.0000000000000000e+00  1.2562331585529143e-05 4.1220328330805911e-05 0.0000000000000000e+00  1.0045870022931821e-05 3.7247422941508243e-05 0.0000000000000000e+00  6.5231744462655816e-06 4.2403275085077967e-05 0.0000000000000000e+00  6.6597609833080694e-05 1.3606964418003902e-05 0.0000000000000000e+00  6.9523082678217305e-05 3.0134633516196899e-05 0.0000000000000000e+00  6.2171349392035416e-05 4.4882479305567202e-05 0.0000000000000000e+00  5.1557582187360266e-05 5.2289282236922168e-05 0.0000000000000000e+00  3.3033600382973657e-05 5.7824921372953675e-05 0.0000000000000000e+00  1.9382407110200689e-05 5.8712679783038978e-05 0.0000000000000000e+00  1.1832386455128642e-05 5.9209278874106264e-05 0.0000000000000000e+00  7.4992168302619216e-06 5.9068802993775921e-05 0.0000000000000000e+00  6.9711703552740630e-06 5.9281431957521344e-05 0.0000000000000000e+00  3.1973160857791154e-06 5.9469585302812167e-05 0.0000000000000000e+00  3.0040579346445961e-06 5.8969557805413964e-05 0.0000000000000000e+00  2.3948768594342371e-06 5.8431387831732058e-05 0.0000000000000000e+00  2.0931164707948601e-06 5.7871236933279720e-05 0.0000000000000000e+00  1.9114129993731877e-06 5.7132154220181901e-05 0.0000000000000000e+00  1.6720877898294059e-06 5.6337350641102572e-05 0.0000000000000000e+00  1.5918399025142422e-06 5.5467567124829509e-05 0.0000000000000000e+00  1.4509700706087304e-06 5.4437155885844395e-05 0.0000000000000000e+00  1.4506151194979129e-06 5.3430864582404315e-05 0.0000000000000000e+00  1.4773989618526888e-06 5.2176592875716413e-05 0.0000000000000000e+00  2.3231742419575154e-06 5.0791348855867393e-05 0.0000000000000000e+00  2.8009776197010085e-06 4.8778480960209518e-05 0.0000000000000000e+00  4.0958315555256382e-06 4.6823267999888471e-05 0.0000000000000000e+00  6.2778937106374303e-06 4.5520120693103215e-05 0.0000000000000000e+00  8.4841745656480649e-06 4.3860640434546646e-05 0.0000000000000000e+00  1.1948776880647745e-05 4.2696414654211309e-05 0.0000000000000000e+00  1.0316491046432822e-05 4.4488576303429286e-05 0.0000000000000000e+00  5.5138848604260775e-06 4.5405668366827273e-05 0.0000000000000000e+00  5.8153323563729057e-05 -1.6654140222318362e-05 0.0000000000000000e+00  5.4499350413197951e-05 2.8942688721642547e-05 0.0000000000000000e+00  4.7053983490770877e-05 4.5544549482234971e-05 0.0000000000000000e+00  4.4372411499064893e-05 5.5025121185826798e-05 0.0000000000000000e+00  3.5111754317906060e-05 6.7876762190303627e-05 0.0000000000000000e+00  2.2799457011411177e-05 6.1969158427468141e-05 0.0000000000000000e+00  1.4555728822402749e-05 6.1759881691979818e-05 0.0000000000000000e+00  6.4629154709636677e-06 6.0756339062350258e-05 0.0000000000000000e+00  3.9839774730932382e-06 6.0646913971800181e-05 0.0000000000000000e+00  1.6040184621711206e-06 5.8909714601415464e-05 0.0000000000000000e+00  1.6236506479914688e-06 5.8705173649077750e-05 0.0000000000000000e+00  1.1911727259364608e-06 5.8164479539687237e-05 0.0000000000000000e+00  1.3104656442441554e-06 5.7643769165324935e-05 0.0000000000000000e+00  1.3193815846073666e-06 5.6946130694080707e-05 0.0000000000000000e+00  1.3705683150943449e-06 5.6222543667952466e-05 0.0000000000000000e+00  1.4400371432677782e-06 5.5310937741697509e-05 0.0000000000000000e+00  1.5022568225495148e-06 5.4364843632694305e-05 0.0000000000000000e+00  1.6162113664998134e-06 5.3253163538900209e-05 0.0000000000000000e+00  1.8072595936110550e-06 5.1983950915469048e-05 0.0000000000000000e+00  2.3447653978523702e-06 5.0488374731001839e-05 0.0000000000000000e+00  2.9941927666850293e-06 4.8710910875843528e-05 0.0000000000000000e+00  4.9351882803087846e-06 4.6995938262258618e-05 0.0000000000000000e+00  6.8686617570586020e-06 4.3986068710172001e-05 0.0000000000000000e+00  8.9701450428590104e-06 4.0433415327559336e-05 0.0000000000000000e+00  1.3041935823066437e-05 4.1238656168766180e-05 0.0000000000000000e+00  1.2341374632511432e-05 4.7962944083421112e-05 0.0000000000000000e+00  7.9129059106391962e-06 5.0942915311433629e-05 0.0000000000000000e+00  4.3756898870199999e-06 -6.1939002179887501e-05 0.0000000000000000e+00  2.5809487701533068e-05 2.7033838951483523e-05 0.0000000000000000e+00  3.4802133774841312e-05 4.5593941618150885e-05 0.0000000000000000e+00  3.0711353853619818e-05 5.4140213121017734e-05 0.0000000000000000e+00  3.1350633382784158e-05 7.2467135425580346e-05 0.0000000000000000e+00  2.6502504551838018e-05 6.6108921178618206e-05 0.0000000000000000e+00  1.8582400386281051e-05 6.8816871346721244e-05 0.0000000000000000e+00  1.0013199212788666e-05 6.5125839289499238e-05 0.0000000000000000e+00  3.1011902929574979e-06 6.0596123923928696e-05 0.0000000000000000e+00  1.3132123283989635e-06 5.8713755842033661e-05 0.0000000000000000e+00  9.1766022217797458e-07 5.8429598752505197e-05 0.0000000000000000e+00  1.1952827777432402e-06 5.7922846986555984e-05 0.0000000000000000e+00  1.2235398638821114e-06 5.7308297844475382e-05 0.0000000000000000e+00  1.5068881638736407e-06 5.6830739341908689e-05 0.0000000000000000e+00  1.6176028978640431e-06 5.5956280815071118e-05 0.0000000000000000e+00  1.8239373716352833e-06 5.5228543257057985e-05 0.0000000000000000e+00  1.9680039255203825e-06 5.4197229671715155e-05 0.0000000000000000e+00  2.1825757915470605e-06 5.3186697068721283e-05 0.0000000000000000e+00  2.3645123554715763e-06 5.2051145677836466e-05 0.0000000000000000e+00  3.0616856250089130e-06 5.0374292680811732e-05 0.0000000000000000e+00  4.4469394306642397e-06 4.8166226418523639e-05 0.0000000000000000e+00  6.4441448423804318e-06 4.5490374798951843e-05 0.0000000000000000e+00  9.5657867313930862e-06 4.2656112877879881e-05 0.0000000000000000e+00  1.2026203191217534e-05 3.9230224938692864e-05 0.0000000000000000e+00  9.1148564521743623e-06 4.0628395664811595e-05 0.0000000000000000e+00  9.0011075434819127e-06 5.0310978398909326e-05 0.0000000000000000e+00  9.6235475826980952e-06 5.4539334628309329e-05 0.0000000000000000e+00  </DataArray> 
</PointData> 
</Piece>
</UnstructuredGrid>
</VTKFile>